ITEM: TIMESTEP
0
ITEM: NUMBER OF ATOMS
4948
ITEM: BOX BOUNDS pp pp pp
-1.6160000000000000e+01 1.6160000000000000e+01
-1.6160000000000000e+01 1.6160000000000000e+01
-4.0000000000000000e+01 4.0000000000000000e+01
ITEM: ATOMS id type xs ys zs
457 5 0.219922 0.188614 0.223418
201 5 0.214785 0.189683 0.174528
204 5 0.217437 0.25118 0.199499
172 5 0.21841 0.126933 0.199013
199 5 0.15468 0.190902 0.20049
454 5 0.155142 0.252799 0.223666
198 5 0.153022 0.254953 0.174202
422 5 0.155432 0.128264 0.224029
166 5 0.155068 0.12608 0.174556
197 5 0.0921508 0.191555 0.173195
200 5 0.0934615 0.249822 0.199347
453 5 0.0945249 0.1881 0.224337
168 5 0.0919512 0.129845 0.199807
169 5 0.220187 0.0627788 0.172462
425 5 0.218805 0.0637584 0.224385
421 5 0.093285 0.0673672 0.223892
167 5 0.158462 0.0653483 0.200067
165 5 0.0917042 0.0663493 0.175213
163 5 0.0310881 0.0659074 0.201114
312 5 0.594949 0.625584 0.249606
195 5 0.0294688 0.19164 0.199496
418 5 0.030369 0.129062 0.224221
436 5 0.471284 0.125595 0.248763
300 5 0.218184 0.628228 0.249169
396 5 0.222212 0.00117671 0.248572
440 5 0.592383 0.129516 0.249028
162 5 0.0281841 0.125595 0.176231
450 5 0.0291891 0.250998 0.22472
419 5 0.0303082 0.0637117 0.249488
363 5 0.281471 0.812265 0.248694
288 5 0.844139 0.505784 0.249361
383 5 0.906171 0.815203 0.249855
134 5 0.156705 0.00252295 0.173761
140 5 0.219481 0.00268558 0.200141
136 5 0.0923187 0.00139656 0.199467
170 5 0.285518 0.12688 0.173906
512 5 0.845052 0.378681 0.247461
202 5 0.282711 0.25173 0.175496
458 5 0.281455 0.251413 0.223228
203 5 0.282616 0.186036 0.1989
426 5 0.279705 0.124496 0.223432
171 5 0.282409 0.0638218 0.198188
423 5 0.156068 0.0666456 0.249032
208 5 0.347808 0.251684 0.200162
461 5 0.345166 0.190371 0.223599
205 5 0.347355 0.188464 0.175151
176 5 0.34375 0.125774 0.199504
207 5 0.410457 0.18746 0.199831
206 5 0.41115 0.252383 0.175122
430 5 0.408826 0.124876 0.22381
462 5 0.407387 0.250719 0.224655
174 5 0.406095 0.126122 0.174994
209 5 0.472125 0.184993 0.174409
465 5 0.469534 0.188567 0.225841
212 5 0.47225 0.249016 0.200837
180 5 0.468927 0.123563 0.199802
173 5 0.34506 0.0619477 0.172513
177 5 0.469728 0.0626303 0.174425
175 5 0.406924 0.0628019 0.199314
433 5 0.471917 0.0624856 0.223835
429 5 0.344898 0.0610109 0.222566
259 5 0.0316899 0.441296 0.247635
287 5 0.90652 0.441208 0.24899
492 5 0.219809 0.381237 0.249014
504 5 0.593008 0.378434 0.249473
431 5 0.407499 0.0642975 0.249023
336 5 0.347855 0.75136 0.248581
138 5 0.284555 0.00100311 0.174
144 5 0.346683 0.999147 0.1982
148 5 0.471632 0.00159878 0.199445
398 5 0.410113 0.00127567 0.223745
263 5 0.158513 0.442672 0.248595
466 5 0.531551 0.251351 0.225304
211 5 0.533244 0.187894 0.200022
434 5 0.532712 0.127108 0.224496
178 5 0.533889 0.126512 0.173769
179 5 0.534134 0.0647352 0.199839
213 5 0.59287 0.190232 0.174131
469 5 0.594147 0.188965 0.224161
216 5 0.594215 0.251906 0.200151
184 5 0.594149 0.128979 0.199068
214 5 0.656039 0.249973 0.174359
215 5 0.657525 0.190853 0.199807
470 5 0.656344 0.251228 0.224802
182 5 0.656247 0.129527 0.173864
438 5 0.655516 0.129718 0.224324
217 5 0.722409 0.192879 0.174787
473 5 0.72085 0.19049 0.224324
220 5 0.718235 0.253783 0.1994
188 5 0.718815 0.128704 0.200385
181 5 0.597197 0.063711 0.175514
437 5 0.596135 0.065269 0.224772
183 5 0.658797 0.0673083 0.198854
185 5 0.721275 0.0629851 0.176117
441 5 0.719233 0.0658244 0.224368
459 5 0.282069 0.188911 0.248631
100 5 0.969462 0.87525 0.200991
460 5 0.220783 0.252327 0.249014
495 5 0.407301 0.31341 0.248124
507 5 0.780827 0.316918 0.249693
428 5 0.220285 0.126139 0.248679
146 5 0.536023 0.00201645 0.174865
327 5 0.158836 0.689825 0.249627
260 5 0.96927 0.50495 0.248928
219 5 0.781894 0.18979 0.199678
474 5 0.780869 0.254301 0.225336
218 5 0.784228 0.255018 0.173732
442 5 0.784542 0.126273 0.224836
186 5 0.782613 0.128186 0.174823
187 5 0.780416 0.0653119 0.200106
451 5 0.0325364 0.191766 0.249829
477 5 0.841678 0.191864 0.224354
221 5 0.845124 0.189572 0.174609
224 5 0.842781 0.254424 0.200028
192 5 0.843061 0.126865 0.200011
223 5 0.905354 0.190129 0.200666
478 5 0.906259 0.253241 0.225043
190 5 0.906077 0.128885 0.174646
446 5 0.903523 0.130229 0.225321
449 5 0.968221 0.190535 0.225083
193 5 0.968549 0.191324 0.174722
164 5 0.967314 0.127758 0.200641
189 5 0.84435 0.0631805 0.176802
161 5 0.965851 0.0636088 0.175414
445 5 0.844599 0.0649844 0.22504
417 5 0.968987 0.0661411 0.224619
191 5 0.906687 0.0667635 0.2001
296 5 0.0958957 0.625945 0.248638
464 5 0.344123 0.251096 0.248143
395 5 0.283497 0.940666 0.249828
360 5 0.0967452 0.879229 0.249747
392 5 0.0935325 0.00353311 0.248679
447 5 0.906934 0.0671344 0.249065
452 5 0.96791 0.253332 0.248807
299 5 0.281959 0.565076 0.247977
194 5 0.0305559 0.254 0.174441
367 5 0.405867 0.814393 0.249016
231 5 0.154735 0.315998 0.198489
229 5 0.0902253 0.314834 0.174458
489 5 0.219076 0.313497 0.223091
233 5 0.221231 0.312787 0.174252
485 5 0.094634 0.316985 0.223787
236 5 0.220719 0.377727 0.198732
265 5 0.221461 0.441258 0.224327
9 5 0.222517 0.439477 0.173943
12 5 0.221107 0.501185 0.198669
486 5 0.157648 0.377551 0.223643
230 5 0.154841 0.37694 0.174454
7 5 0.158362 0.440685 0.199402
262 5 0.159623 0.503366 0.222992
6 5 0.155229 0.506022 0.175244
261 5 0.0946211 0.439984 0.223348
8 5 0.0946086 0.506104 0.200112
232 5 0.0915365 0.379094 0.199215
5 5 0.0958998 0.440365 0.175238
482 5 0.0325155 0.376168 0.223811
476 5 0.72107 0.256798 0.249402
408 5 0.594156 0.00341997 0.249524
291 5 0.0345036 0.562866 0.247856
323 5 0.0302575 0.688229 0.249661
227 5 0.0273217 0.314255 0.199379
226 5 0.0278756 0.377899 0.174138
3 5 0.0303034 0.442081 0.198732
258 5 0.0328839 0.503811 0.223563
364 5 0.22061 0.878891 0.248586
491 5 0.281317 0.315428 0.246987
356 5 0.968683 0.87959 0.249379
2 5 0.0325186 0.505027 0.174551
280 5 0.593814 0.503232 0.249062
499 5 0.530482 0.314719 0.24923
10 5 0.283572 0.502652 0.174836
235 5 0.283588 0.315846 0.200114
490 5 0.282274 0.380535 0.225399
266 5 0.284676 0.502045 0.223611
11 5 0.284212 0.439722 0.200289
234 5 0.286942 0.376803 0.174234
237 5 0.347809 0.312959 0.175076
493 5 0.345336 0.31533 0.223856
239 5 0.410855 0.31325 0.200732
241 5 0.473363 0.316988 0.175092
497 5 0.470068 0.315435 0.22491
13 5 0.346332 0.436445 0.174045
240 5 0.346529 0.375778 0.200205
269 5 0.347013 0.440545 0.224651
16 5 0.348572 0.502945 0.198497
494 5 0.405924 0.377582 0.224787
238 5 0.407235 0.374973 0.174616
15 5 0.408061 0.43868 0.199641
14 5 0.412401 0.500173 0.172834
270 5 0.408826 0.500498 0.224787
244 5 0.471071 0.379614 0.200374
273 5 0.467481 0.440239 0.224934
17 5 0.474811 0.438411 0.173863
20 5 0.46896 0.500665 0.19964
487 5 0.160064 0.317716 0.249096
268 5 0.220693 0.505618 0.248184
424 5 0.0932256 0.126578 0.248688
272 5 0.344295 0.504525 0.249023
391 5 0.158791 0.941378 0.248825
350 5 0.909443 0.753257 0.225089
210 5 0.53079 0.251618 0.17549
129 5 0.968253 0.939262 0.17797
242 5 0.535233 0.373377 0.173841
498 5 0.534004 0.37604 0.22465
19 5 0.533605 0.440153 0.19948
18 5 0.529681 0.504485 0.17453
243 5 0.532295 0.314838 0.20007
420 5 0.969675 0.129592 0.248392
123 5 0.781163 0.812522 0.201554
249 5 0.718805 0.318411 0.175442
245 5 0.59504 0.311398 0.174578
501 5 0.593302 0.312842 0.224341
247 5 0.656282 0.316758 0.198934
505 5 0.719328 0.316404 0.22417
248 5 0.594721 0.377608 0.199978
21 5 0.592026 0.440178 0.17465
277 5 0.592507 0.440559 0.224458
24 5 0.593951 0.504048 0.200202
246 5 0.654636 0.381156 0.173797
502 5 0.655821 0.374846 0.224959
23 5 0.654847 0.440364 0.199799
22 5 0.653637 0.504575 0.175831
278 5 0.65578 0.504709 0.224074
252 5 0.718548 0.376962 0.200019
28 5 0.716771 0.505915 0.200471
25 5 0.71531 0.443053 0.1735
281 5 0.719589 0.439264 0.223848
475 5 0.78106 0.191309 0.249049
304 5 0.344418 0.624859 0.248811
414 5 0.907281 0.00313427 0.225528
122 5 0.783285 0.876737 0.175818
368 5 0.344221 0.875813 0.249566
125 5 0.845977 0.816501 0.175627
222 5 0.903457 0.255658 0.174255
196 5 0.966405 0.252674 0.200301
282 5 0.781015 0.504053 0.224392
26 5 0.780372 0.504398 0.175084
251 5 0.782426 0.317732 0.199318
250 5 0.78038 0.383527 0.174316
506 5 0.781732 0.378068 0.223996
27 5 0.78073 0.442377 0.200278
331 5 0.284486 0.688555 0.249465
253 5 0.84562 0.319806 0.174508
509 5 0.843386 0.317561 0.223488
255 5 0.904338 0.316901 0.199713
481 5 0.966454 0.316607 0.224583
225 5 0.966487 0.316372 0.174508
256 5 0.842797 0.380558 0.200264
29 5 0.843874 0.441868 0.174738
285 5 0.845096 0.444224 0.223847
254 5 0.906739 0.382128 0.174497
510 5 0.907702 0.380394 0.224105
30 5 0.905546 0.504885 0.174507
31 5 0.908446 0.44417 0.199629
228 5 0.968711 0.380017 0.199553
257 5 0.969865 0.442083 0.22425
1 5 0.970426 0.443267 0.175015
4 5 0.969641 0.506208 0.199995
456 5 0.0934184 0.252549 0.248228
132 5 0.969141 0.00453669 0.200434
416 5 0.842281 0.00389123 0.249405
127 5 0.907309 0.813925 0.200352
427 5 0.284458 0.063628 0.247554
267 5 0.284002 0.44418 0.249233
126 5 0.90833 0.876296 0.175265
404 5 0.47151 0.0012366 0.249129
37 5 0.0963186 0.568875 0.173771
297 5 0.221057 0.567021 0.223568
39 5 0.157195 0.56554 0.199019
293 5 0.0955055 0.565952 0.223259
41 5 0.221406 0.565115 0.174629
44 5 0.220526 0.627692 0.198565
73 5 0.224361 0.690832 0.172692
329 5 0.219712 0.688681 0.225024
76 5 0.22068 0.752339 0.199604
70 5 0.159307 0.754402 0.174351
38 5 0.159957 0.630549 0.173891
294 5 0.159787 0.627796 0.22387
71 5 0.161252 0.692337 0.199218
326 5 0.158962 0.754191 0.225158
40 5 0.0955715 0.628774 0.199865
69 5 0.0998046 0.690129 0.175507
325 5 0.0970203 0.690295 0.22575
384 5 0.84097 0.875642 0.249362
435 5 0.533494 0.0635677 0.248012
484 5 0.967894 0.378429 0.248193
511 5 0.904337 0.318069 0.247936
35 5 0.0312762 0.566308 0.198956
290 5 0.0348329 0.631447 0.223939
66 5 0.0365526 0.752779 0.174909
67 5 0.0342485 0.691079 0.200232
410 5 0.781641 0.00366144 0.224301
34 5 0.0320558 0.63179 0.175183
400 5 0.345277 0.00138016 0.24854
154 5 0.784708 0.000313947 0.176107
75 5 0.28027 0.690841 0.200597
439 5 0.657115 0.0651977 0.248259
96 5 0.845348 0.752561 0.199806
43 5 0.285327 0.565137 0.200065
298 5 0.282057 0.628065 0.224287
74 5 0.283351 0.751585 0.175552
311 5 0.656841 0.564245 0.249209
42 5 0.28443 0.625685 0.175091
301 5 0.346747 0.564674 0.22424
47 5 0.408127 0.565905 0.199046
305 5 0.468689 0.566661 0.224203
45 5 0.348539 0.563327 0.173106
49 5 0.471482 0.566838 0.17349
48 5 0.344903 0.628179 0.199674
77 5 0.3445 0.690058 0.175362
333 5 0.345158 0.688812 0.224684
80 5 0.345885 0.751535 0.200902
46 5 0.410648 0.628133 0.1742
302 5 0.407059 0.627078 0.224025
78 5 0.408441 0.754763 0.175428
79 5 0.40666 0.689639 0.198633
334 5 0.410163 0.754164 0.224939
52 5 0.467147 0.630076 0.199537
81 5 0.471162 0.691461 0.174698
337 5 0.468651 0.690369 0.223351
84 5 0.472872 0.75618 0.199939
352 5 0.842769 0.750825 0.249847
411 5 0.781966 0.939107 0.249372
308 5 0.468264 0.627959 0.249304
319 5 0.909055 0.566609 0.248397
274 5 0.530529 0.50326 0.224656
283 5 0.781638 0.443168 0.248861
51 5 0.529897 0.562889 0.200055
83 5 0.532293 0.692352 0.200377
378 5 0.781062 0.875577 0.224985
50 5 0.530417 0.626878 0.175347
306 5 0.531781 0.630533 0.224298
82 5 0.533247 0.75549 0.174887
338 5 0.532062 0.753222 0.225371
53 5 0.590577 0.566878 0.174194
55 5 0.655635 0.567576 0.201344
313 5 0.722476 0.566557 0.224759
309 5 0.591989 0.56623 0.225953
57 5 0.719624 0.56705 0.175794
56 5 0.592358 0.626891 0.200413
341 5 0.59463 0.689325 0.225118
85 5 0.593715 0.690104 0.175905
88 5 0.596105 0.754191 0.200225
310 5 0.656468 0.627259 0.225192
54 5 0.656243 0.627656 0.175482
87 5 0.656534 0.691033 0.201475
86 5 0.65837 0.754775 0.175125
342 5 0.657512 0.752221 0.225857
60 5 0.718785 0.627588 0.201388
89 5 0.717516 0.687822 0.177186
92 5 0.717641 0.753548 0.200951
345 5 0.718509 0.691655 0.225478
307 5 0.531085 0.566597 0.249588
480 5 0.84269 0.253986 0.248781
160 5 0.844751 0.00344217 0.20152
332 5 0.219859 0.750716 0.249684
159 5 0.907545 0.937256 0.200962
483 5 0.0308594 0.313666 0.248531
32 5 0.843093 0.505811 0.200014
286 5 0.907052 0.50515 0.224338
59 5 0.78127 0.565873 0.199838
314 5 0.783912 0.625701 0.224312
58 5 0.783369 0.629203 0.17545
90 5 0.78214 0.756238 0.175433
91 5 0.782242 0.690309 0.200205
155 5 0.782878 0.938797 0.200927
432 5 0.344098 0.126925 0.247464
292 5 0.968439 0.627946 0.248163
317 5 0.842074 0.566649 0.224983
63 5 0.905135 0.566416 0.199258
61 5 0.84288 0.565158 0.175223
289 5 0.971442 0.566585 0.224245
33 5 0.973401 0.570955 0.173384
64 5 0.847088 0.630368 0.19995
349 5 0.845082 0.693179 0.224164
93 5 0.840938 0.694136 0.175257
62 5 0.905517 0.633038 0.174425
318 5 0.908179 0.628833 0.224505
95 5 0.909904 0.692859 0.199944
94 5 0.907733 0.751269 0.174547
36 5 0.969569 0.629264 0.20062
68 5 0.970568 0.755011 0.199797
321 5 0.968492 0.690565 0.224897
65 5 0.970313 0.691299 0.175705
276 5 0.470032 0.502634 0.249171
316 5 0.720448 0.628537 0.249088
295 5 0.159699 0.56541 0.248794
156 5 0.717235 0.999546 0.201124
387 5 0.0344745 0.937742 0.249239
72 5 0.0978445 0.754739 0.200229
322 5 0.0349408 0.751187 0.224665
385 5 0.968057 0.939622 0.225091
275 5 0.530932 0.440147 0.249288
346 5 0.779652 0.751734 0.224885
354 5 0.0337013 0.876817 0.223993
105 5 0.220845 0.817453 0.173703
101 5 0.0970185 0.814498 0.173782
361 5 0.219472 0.814653 0.22414
103 5 0.157397 0.816137 0.199676
357 5 0.0959922 0.816788 0.224064
389 5 0.0953337 0.939441 0.224088
104 5 0.0966433 0.87618 0.198111
102 5 0.158785 0.878328 0.173495
135 5 0.158472 0.942433 0.199999
358 5 0.157277 0.876886 0.22459
390 5 0.154412 0.00398834 0.223727
393 5 0.220475 0.938594 0.224413
108 5 0.219755 0.878293 0.199763
137 5 0.220399 0.944863 0.172703
133 5 0.0965012 0.939152 0.173379
353 5 0.96999 0.816618 0.225506
386 5 0.0311412 0.00180188 0.225112
158 5 0.907122 0.999171 0.175041
157 5 0.844636 0.939208 0.175553
130 5 0.032315 0.00221915 0.174513
98 5 0.0309147 0.878232 0.173885
99 5 0.0345681 0.816881 0.199864
131 5 0.0328994 0.938425 0.199843
330 5 0.281428 0.751156 0.225033
264 5 0.0978896 0.504359 0.247575
413 5 0.844196 0.939807 0.225757
455 5 0.157255 0.191378 0.248374
107 5 0.281068 0.813174 0.200221
139 5 0.282856 0.938753 0.199227
128 5 0.844886 0.876916 0.200134
382 5 0.905764 0.877141 0.225698
362 5 0.281874 0.874282 0.224025
106 5 0.280979 0.878647 0.174242
394 5 0.282289 0.0011701 0.223549
468 5 0.469232 0.251626 0.248294
141 5 0.346916 0.93609 0.173653
110 5 0.408987 0.876897 0.175125
116 5 0.470969 0.874442 0.200416
113 5 0.472365 0.814748 0.175427
369 5 0.471824 0.813537 0.225485
112 5 0.345443 0.875603 0.200029
111 5 0.408373 0.81403 0.199449
365 5 0.346595 0.813807 0.223327
145 5 0.470273 0.937565 0.17502
143 5 0.410038 0.93608 0.199598
401 5 0.471035 0.938795 0.224421
366 5 0.408346 0.876278 0.225368
109 5 0.345555 0.815872 0.175265
397 5 0.343493 0.939143 0.224575
142 5 0.409414 0.999236 0.174247
284 5 0.718404 0.500744 0.247347
381 5 0.84507 0.812206 0.224837
115 5 0.53652 0.815265 0.201434
370 5 0.5304 0.875597 0.225219
147 5 0.530738 0.938829 0.200198
402 5 0.532605 0.999599 0.224375
403 5 0.531498 0.938545 0.249532
320 5 0.843603 0.628391 0.249132
97 5 0.97164 0.816498 0.174282
399 5 0.407596 0.93933 0.249388
114 5 0.534017 0.879278 0.174499
152 5 0.597931 0.000748984 0.199804
374 5 0.656569 0.876601 0.225948
409 5 0.719527 0.939972 0.225406
406 5 0.656732 0.00116895 0.224989
377 5 0.719707 0.813656 0.225578
121 5 0.718904 0.815936 0.176106
124 5 0.719137 0.87646 0.200694
149 5 0.59865 0.938802 0.176041
373 5 0.595106 0.814133 0.225685
120 5 0.595737 0.875716 0.201204
117 5 0.595554 0.817908 0.174528
151 5 0.658449 0.936818 0.200865
405 5 0.595268 0.938852 0.224509
119 5 0.658504 0.814955 0.200765
118 5 0.657909 0.876117 0.174624
150 5 0.660047 0.00186767 0.175584
153 5 0.720832 0.939124 0.174568
488 5 0.0933991 0.379215 0.248682
335 5 0.408325 0.689797 0.249064
496 5 0.344076 0.378214 0.248619
324 5 0.969296 0.751466 0.249137
315 5 0.781986 0.565107 0.249424
472 5 0.594678 0.25188 0.249542
463 5 0.405784 0.185814 0.249582
303 5 0.408611 0.568069 0.249104
444 5 0.71903 0.128503 0.249894
503 5 0.656356 0.313847 0.24953
339 5 0.532077 0.691031 0.249404
279 5 0.655664 0.438905 0.248852
355 5 0.0328388 0.813277 0.249459
343 5 0.657267 0.689744 0.249497
500 5 0.468173 0.375891 0.249354
379 5 0.779644 0.812315 0.24967
351 5 0.90418 0.688841 0.249314
471 5 0.658526 0.191125 0.248951
443 5 0.780587 0.0647704 0.249297
376 5 0.592731 0.875191 0.249797
508 5 0.720504 0.379009 0.249319
347 5 0.783229 0.688717 0.249481
448 5 0.843685 0.127804 0.249951
467 5 0.52926 0.189543 0.249903
479 5 0.905458 0.193063 0.249858
1874 2 0.20144 0.234991 0.298167
613 5 0.221788 0.187797 0.274373
1603 2 0.238011 0.149052 0.302892
1604 2 0.19862 0.131114 0.295657
1602 1 0.223359 0.123551 0.301482
1651 2 0.148195 0.177673 0.307485
1650 1 0.158587 0.197371 0.299598
596 5 0.157999 0.126568 0.273607
1652 2 0.134412 0.210865 0.295349
1600 2 0.124375 0.0865396 0.303979
1432 2 0.0843409 0.126773 0.318201
611 5 0.0948832 0.188995 0.273541
1431 1 0.0857832 0.132535 0.306479
1599 1 0.143165 0.064161 0.305927
597 5 0.220965 0.0640276 0.273216
595 5 0.0947463 0.0669645 0.273223
1601 2 0.126461 0.0398131 0.304998
1433 2 0.0654215 0.153584 0.304697
3688 2 0.197747 0.115887 0.364154
3689 2 0.238824 0.104916 0.356213
4580 2 0.167088 0.184788 0.331282
4016 2 0.145368 0.0706983 0.371939
3687 1 0.220315 0.1276 0.358019
4015 2 0.161726 0.0837241 0.388873
4014 1 0.156864 0.0938219 0.377797
1406 2 0.049578 0.0903502 0.304749
610 5 0.0312319 0.253785 0.274028
594 5 0.0290573 0.128422 0.273527
1404 1 0.0383053 0.06493 0.308866
1988 2 0.0679759 0.0718286 0.355063
1986 1 0.0463509 0.0886714 0.359594
4578 1 0.154433 0.158552 0.329118
4579 2 0.177166 0.140181 0.327186
1385 2 0.194799 0.0357964 0.306384
1405 2 0.060612 0.0455582 0.308031
2010 1 0.0319554 0.198513 0.307877
2012 2 0.0534542 0.218387 0.309681
2607 1 0.0754675 0.153501 0.338779
2608 2 0.0697831 0.180469 0.343159
2609 2 0.104406 0.153973 0.33624
1384 2 0.238612 0.0200459 0.304308
3369 1 0.966642 0.0703666 0.367661
3370 2 0.956923 0.0975575 0.37032
2791 2 0.930849 0.123533 0.338931
2011 2 0.0123251 0.212542 0.300938
3371 2 0.994909 0.0742986 0.364463
1872 1 0.221337 0.253767 0.30275
2790 1 0.942086 0.0981198 0.33479
1383 1 0.210343 0.0112308 0.304097
1987 2 0.0453161 0.112284 0.352384
1707 1 0.123557 0.0257605 0.349716
1708 2 0.136765 0.0181696 0.339455
1409 2 0.267039 0.0888075 0.302586
3115 2 0.0684746 0.24996 0.345261
3116 2 0.0236496 0.236828 0.343842
3114 1 0.0502286 0.227262 0.347437
580 5 0.158258 0.00264737 0.274816
1709 2 0.113231 0.000239408 0.354127
4252 2 0.0826144 0.966774 0.376896
3845 2 0.31819 0.266105 0.321811
1627 2 0.263254 0.207944 0.301496
3843 1 0.309705 0.259603 0.33297
2583 1 0.327738 0.0198022 0.382038
2584 2 0.319965 0.0310689 0.371428
3844 2 0.281274 0.267814 0.333439
1408 2 0.285523 0.0696026 0.318147
1407 1 0.278735 0.0636297 0.306753
2585 2 0.347521 0.998747 0.379407
1626 1 0.283938 0.187473 0.303716
598 5 0.286162 0.123312 0.272716
614 5 0.284778 0.252733 0.272494
4132 2 0.429265 0.24049 0.347861
1628 2 0.309361 0.202642 0.304054
4133 2 0.461777 0.207659 0.350969
4131 1 0.448593 0.230979 0.356072
1411 2 0.330433 0.096574 0.303004
1412 2 0.319392 0.141971 0.301647
1410 1 0.342081 0.123725 0.303837
615 5 0.343459 0.185013 0.274118
1435 2 0.435222 0.162791 0.304347
1436 2 0.391384 0.163066 0.311014
1434 1 0.41292 0.181004 0.307148
616 5 0.403814 0.253625 0.274071
600 5 0.408657 0.128029 0.27491
3482 2 0.451355 0.196786 0.372265
617 5 0.467565 0.191827 0.27507
1437 1 0.473242 0.125371 0.308299
1439 2 0.493319 0.107479 0.303287
1438 2 0.488063 0.139417 0.316966
3610 2 0.331896 0.0874101 0.343416
1414 2 0.431184 0.0790285 0.309464
599 5 0.349428 0.0637442 0.274626
601 5 0.468545 0.0639864 0.274768
1413 1 0.405137 0.0675237 0.306174
1415 2 0.39117 0.0897435 0.30063
1921 2 0.370115 0.162748 0.360338
3609 1 0.305319 0.0767375 0.340369
3611 2 0.308759 0.0473236 0.340507
1649 2 0.373815 0.232669 0.30262
1963 2 0.489957 0.0142394 0.308897
1388 2 0.321834 0.0170565 0.298986
2991 1 0.384891 0.04422 0.349937
3305 2 0.43134 0.15049 0.337363
2993 2 0.396714 0.0713707 0.349762
1387 2 0.367427 0.0222148 0.302792
3303 1 0.415467 0.13572 0.345514
3304 2 0.435625 0.121246 0.352044
3781 2 0.488638 0.132877 0.370407
2992 2 0.393759 0.0318543 0.339672
3507 1 0.345699 0.117632 0.392536
3141 1 0.496939 0.181749 0.332843
3142 2 0.517923 0.194842 0.326262
3780 1 0.484768 0.107091 0.364734
1647 1 0.349477 0.249405 0.303496
582 5 0.284613 0.00429616 0.275579
1386 1 0.3462 0.00171248 0.301783
3508 2 0.346694 0.0892329 0.389165
1636 2 0.511528 0.21058 0.303896
4134 1 0.509784 0.0165437 0.35269
4135 2 0.505145 0.016998 0.364506
3143 2 0.511195 0.1603 0.338751
4136 2 0.484321 0.00660566 0.348083
1629 1 0.531236 0.0560047 0.307619
1630 2 0.534151 0.0574565 0.319511
602 5 0.528974 0.128288 0.274992
1635 1 0.536932 0.195435 0.304522
3467 2 0.575106 0.117011 0.354824
3465 1 0.55673 0.122746 0.345731
1637 2 0.557942 0.216277 0.304991
1631 2 0.554542 0.0400983 0.303985
1417 2 0.564271 0.103137 0.305778
1416 1 0.58358 0.125447 0.304743
619 5 0.595382 0.187127 0.27301
1418 2 0.567697 0.147756 0.300187
1442 2 0.62837 0.174438 0.30777
1441 2 0.672696 0.162585 0.303962
1440 1 0.655242 0.186016 0.305919
604 5 0.65678 0.125445 0.274406
620 5 0.654129 0.250521 0.27425
621 5 0.71869 0.191406 0.273897
1467 1 0.710135 0.247079 0.307627
1443 1 0.723431 0.124154 0.307861
1444 2 0.742948 0.146429 0.307855
1445 2 0.739939 0.0998155 0.306446
1419 1 0.654698 0.072567 0.307943
603 5 0.593956 0.0676208 0.273227
605 5 0.717032 0.0632827 0.275253
1420 2 0.635017 0.09054 0.302725
1421 2 0.676817 0.0904618 0.311265
1878 1 0.635835 0.0395341 0.341231
1879 2 0.645634 0.0558281 0.332057
4042 2 0.603332 0.158412 0.370478
4043 2 0.64044 0.142279 0.360945
4041 1 0.617916 0.133469 0.36785
3466 2 0.574399 0.124769 0.336163
1469 2 0.692784 0.223558 0.305697
2631 1 0.695739 0.14869 0.351699
2633 2 0.721519 0.135067 0.353794
2632 2 0.702674 0.171055 0.344373
2378 2 0.552657 0.966683 0.352383
1392 1 0.707227 0.00436434 0.303609
1394 2 0.68944 0.0267758 0.306699
2840 2 0.601052 0.0235929 0.360727
2698 2 0.622039 0.227252 0.335408
2699 2 0.579521 0.246106 0.33765
2697 1 0.601129 0.232291 0.343633
2839 2 0.594181 0.0397688 0.378268
2838 1 0.601617 0.0153294 0.372214
2837 2 0.718137 0.235388 0.327521
2836 2 0.717296 0.244251 0.3461
2835 1 0.716176 0.222079 0.338181
3991 2 0.577055 0.209536 0.361906
3992 2 0.55502 0.226478 0.377138
1942 2 0.654375 0.113639 0.410805
1953 1 0.689391 0.0576766 0.366209
1955 2 0.669677 0.0440533 0.359178
2792 2 0.930643 0.0772826 0.341926
1846 2 0.795877 0.208763 0.308195
1616 2 0.757109 0.0362833 0.304096
3394 2 0.841875 0.0829583 0.350276
3395 2 0.797395 0.0838773 0.344356
3393 1 0.824519 0.0935866 0.341583
622 5 0.779917 0.254332 0.274616
606 5 0.780355 0.12826 0.274163
1614 1 0.776181 0.0571313 0.307681
1615 2 0.780106 0.0518019 0.319343
1845 1 0.772367 0.19115 0.309717
2834 2 0.886456 0.0242175 0.361573
1847 2 0.749468 0.207111 0.305717
2111 2 0.985562 0.248355 0.371829
1423 2 0.822295 0.116911 0.297418
623 5 0.840164 0.189612 0.27442
1470 1 0.842033 0.246108 0.304794
1422 1 0.841066 0.121079 0.306518
1424 2 0.826686 0.110618 0.316086
1427 2 0.922682 0.170671 0.306667
1426 2 0.877932 0.160161 0.30303
1425 1 0.897493 0.182359 0.302506
624 5 0.901597 0.252938 0.274275
608 5 0.908842 0.128915 0.274794
609 5 0.969334 0.193063 0.274487
1428 1 0.956208 0.244728 0.304573
1812 1 0.966922 0.135774 0.305513
1814 2 0.991454 0.150884 0.308283
1813 2 0.962457 0.117934 0.314892
607 5 0.843424 0.0644277 0.274526
593 5 0.972108 0.0628652 0.274424
1810 2 0.930725 0.0745859 0.309652
1809 1 0.909848 0.0612763 0.303086
1968 1 0.81907 0.178718 0.340343
1970 2 0.825153 0.149744 0.340665
1811 2 0.908308 0.0774267 0.293076
2832 1 0.902468 0.0341767 0.352346
2833 2 0.927412 0.0443586 0.357315
1969 2 0.796558 0.181056 0.332626
1396 2 0.865739 0.0224272 0.305662
1402 2 0.989564 0.034439 0.310034
1471 2 0.862312 0.22457 0.305366
1944 1 0.911507 0.173477 0.346616
1945 2 0.886078 0.178224 0.340791
1794 1 0.823343 0.269254 0.34636
1946 2 0.925462 0.199589 0.346308
1403 2 0.944737 0.0274918 0.305317
1430 2 0.93685 0.223422 0.301762
1796 2 0.819924 0.242381 0.341524
4296 1 0.74743 0.0328268 0.340653
1795 2 0.846071 0.266199 0.353931
1429 2 0.95343 0.248004 0.316411
1397 2 0.819009 0.0252712 0.306272
1401 1 0.969402 0.013089 0.308481
2491 2 0.764295 0.22497 0.377677
4298 2 0.72388 0.0459827 0.345592
4522 2 0.807506 0.173528 0.379731
2903 2 0.867965 0.0750988 0.38013
2902 2 0.856481 0.118657 0.374942
2490 1 0.775216 0.216112 0.388208
4523 2 0.812218 0.162528 0.361435
612 5 0.156066 0.252835 0.273158
1818 1 0.09438 0.256404 0.306269
2870 2 0.144714 0.244983 0.347196
2868 1 0.146812 0.24616 0.33527
1819 2 0.0789903 0.28095 0.303785
3061 2 0.235561 0.170389 0.343362
1873 2 0.219738 0.249495 0.314572
2869 2 0.15592 0.273758 0.332967
2032 2 0.133148 0.342728 0.345167
2031 1 0.162579 0.345707 0.344579
2033 2 0.166806 0.373972 0.341441
1820 2 0.107625 0.262221 0.31671
1842 1 0.163454 0.319919 0.306742
1844 2 0.178394 0.294361 0.307079
629 5 0.221599 0.313792 0.273637
627 5 0.0939417 0.316274 0.272561
1843 2 0.184463 0.340775 0.306382
1288 2 0.240008 0.397571 0.308272
1289 2 0.197616 0.396214 0.300241
1287 1 0.219936 0.378837 0.303785
517 5 0.222582 0.442084 0.27368
1285 2 0.174384 0.462602 0.300987
1284 1 0.155854 0.439502 0.300817
628 5 0.160529 0.379798 0.273352
516 5 0.15946 0.503802 0.273466
1286 2 0.157281 0.428337 0.311884
515 5 0.0961175 0.441537 0.272811
1308 1 0.0877624 0.484308 0.311132
1309 2 0.0646046 0.467844 0.307757
1452 1 0.0947248 0.37066 0.302919
1453 2 0.0743629 0.349164 0.303189
1454 2 0.120567 0.356346 0.302067
1449 1 0.0290771 0.427805 0.303498
4178 2 0.0940356 0.380072 0.323796
626 5 0.0307112 0.376739 0.272772
514 5 0.0305304 0.50156 0.273797
4176 1 0.0865981 0.385082 0.3352
2054 2 0.237863 0.520255 0.307969
1310 2 0.110848 0.47242 0.305378
1839 1 0.0309636 0.316206 0.305746
1966 2 0.082574 0.338643 0.342488
1965 1 0.0803276 0.309496 0.344405
1450 2 0.0455088 0.414974 0.294999
3245 2 0.0269974 0.379152 0.33368
4177 2 0.0995959 0.410851 0.337883
1841 2 0.00593788 0.330422 0.302926
1776 1 0.160604 0.438589 0.33486
1778 2 0.144875 0.459579 0.340417
2041 2 0.993509 0.34186 0.376369
1777 2 0.186638 0.43837 0.340564
1451 2 0.00605136 0.409533 0.304958
1967 2 0.0859618 0.306221 0.356077
3062 2 0.272084 0.188828 0.334148
3060 1 0.243623 0.193778 0.336785
3229 2 0.228787 0.264282 0.350644
2040 1 0.00362199 0.342052 0.365124
2747 2 0.200797 0.524629 0.345641
3228 1 0.228966 0.285587 0.342333
3230 2 0.208109 0.30465 0.345918
1805 2 0.0833939 0.502803 0.351026
1456 2 0.264421 0.341239 0.303498
1597 2 0.265882 0.452262 0.337105
1596 1 0.245116 0.44943 0.345559
1461 1 0.475274 0.25037 0.306117
1457 2 0.267157 0.294838 0.301158
1462 2 0.460326 0.259214 0.315809
2030 2 0.412345 0.297772 0.323954
1463 2 0.461437 0.263527 0.296971
1455 1 0.283742 0.319363 0.301467
1598 2 0.259568 0.438338 0.354993
630 5 0.284158 0.380609 0.274608
518 5 0.28236 0.505881 0.275543
1648 2 0.353868 0.27143 0.295696
1291 2 0.304706 0.414961 0.309047
1290 1 0.284399 0.436515 0.309204
1292 2 0.299283 0.460883 0.306028
1657 2 0.430785 0.333872 0.29928
1460 2 0.328431 0.356871 0.304623
1459 2 0.350987 0.369032 0.320463
631 5 0.343112 0.315694 0.272162
1656 1 0.405712 0.319426 0.301828
633 5 0.467837 0.314497 0.273329
1458 1 0.348512 0.375932 0.308871
519 5 0.344499 0.443469 0.274644
1658 2 0.386345 0.34078 0.30457
1676 2 0.380275 0.441152 0.303023
1675 2 0.407442 0.442685 0.318427
1674 1 0.408506 0.443795 0.306478
632 5 0.407698 0.379116 0.273761
520 5 0.408561 0.504019 0.273836
1655 2 0.487047 0.400408 0.308442
1654 2 0.448877 0.391658 0.298058
1653 1 0.473286 0.378827 0.302422
521 5 0.470145 0.4388 0.273513
2079 1 0.355783 0.357435 0.339709
2081 2 0.336331 0.344291 0.347003
2080 2 0.366846 0.379769 0.346172
4341 1 0.41101 0.453623 0.344434
4343 2 0.40763 0.431672 0.35235
4342 2 0.400196 0.477544 0.349974
2029 2 0.390173 0.25674 0.325705
1698 1 0.337841 0.507061 0.30468
2028 1 0.412778 0.272419 0.330136
1700 2 0.363961 0.520496 0.303147
1293 1 0.471792 0.497939 0.302964
1295 2 0.493804 0.478998 0.300614
2877 1 0.45514 0.523585 0.37523
2879 2 0.462543 0.495054 0.374068
3535 2 0.505291 0.498718 0.336738
3325 2 0.32301 0.500497 0.362979
1799 2 0.326981 0.214605 0.36746
1798 2 0.318873 0.24701 0.354194
1797 1 0.319746 0.243111 0.36605
3198 1 0.429914 0.370179 0.369397
3199 2 0.405495 0.360846 0.37502
3200 2 0.436888 0.348048 0.361962
618 5 0.535529 0.251345 0.275531
1773 1 0.58655 0.260474 0.304294
4570 2 0.743849 0.304064 0.360467
2629 2 0.548236 0.437826 0.342553
2628 1 0.523932 0.430076 0.336475
4590 1 0.531107 0.355018 0.350413
4592 2 0.52642 0.382513 0.346388
2630 2 0.53329 0.426446 0.325218
3990 1 0.565032 0.201285 0.37232
1775 2 0.611918 0.271516 0.300025
1774 2 0.570526 0.284304 0.307221
2995 2 0.641782 0.540503 0.353355
1297 2 0.562303 0.463283 0.307122
4591 2 0.557552 0.356336 0.355773
3873 1 0.634781 0.375231 0.33226
3874 2 0.627704 0.351375 0.338748
3875 2 0.648576 0.3932 0.339967
1468 2 0.691705 0.270238 0.307202
1296 1 0.544296 0.440737 0.304424
2996 2 0.621114 0.506433 0.343408
2994 1 0.637584 0.530856 0.34217
1298 2 0.562208 0.420014 0.299874
634 5 0.528482 0.375741 0.274696
522 5 0.53279 0.504126 0.274348
1993 2 0.538052 0.342364 0.327593
2797 2 0.69179 0.439701 0.326013
1992 1 0.539456 0.326641 0.317469
2796 1 0.702431 0.426782 0.335884
2798 2 0.707504 0.449218 0.343421
1994 2 0.514469 0.333377 0.311651
1466 2 0.633075 0.324622 0.301467
1465 2 0.6776 0.33349 0.306126
2020 2 0.609514 0.3835 0.312629
1324 2 0.621924 0.483413 0.305838
635 5 0.593181 0.314835 0.273864
637 5 0.718858 0.316306 0.274201
2019 1 0.597404 0.372708 0.302618
523 5 0.595135 0.439637 0.274721
2021 2 0.573435 0.357978 0.306357
1464 1 0.65922 0.311406 0.303224
636 5 0.657934 0.37994 0.274708
2024 2 0.669516 0.420318 0.299822
2022 1 0.662272 0.446532 0.304559