LAMMPS data file via write_data, version 15 Sep 2022, timestep = 30000

657 atoms
7 atom types
438 bonds
6 bond types
219 angles
9 angle types
0 dihedrals
14 dihedral types

-9.526520762638228 9.526520762638228 xlo xhi
-9.526520762638228 9.526520762638228 ylo yhi
-9.526520762638228 9.526520762638228 zlo zhi

Masses

1 15.9994
2 1.008
3 12.011
4 15.9994
5 1.008
6 15.9994
7 1.008

Pair Coeffs # lj/cut/tip4p/long

1 0.185199 3.1589
2 0 0
3 0.056 3.58141
4 0.1 2.93997
5 0.035 2.38761
6 0.192 3.14487
7 0.046 0.40001

Bond Coeffs # harmonic

1 0 0.9572
2 222.35 1.53
3 308.79 1.1111
4 359.76 1.1415
5 427.715 1.142
6 544.635 0.96

Angle Coeffs # charmm

1 0 104.52 0 0
2 50 109 0 0
3 26.5 110.1 22.53 2.179
4 45 111.5 0 0
5 13.0258 109.4 0 0
6 35.5 109 5.4 1.802
7 55 108.89 0 0
8 75.7 110.1 0 0
9 95 109.7 0 0

Dihedral Coeffs # charmm

1 0.57 1 0 0
2 0.29 2 0 0
3 0.43 3 0 0
4 0.59 1 180 0
5 1.16 2 0 0
6 0.12 1 0 0
7 0.42 2 0 0
8 0.29 3 0 0
9 2.87 1 180 0
10 0.03 2 0 0
11 0.23 3 0 0
12 1.36 1 180 0
13 0.16 2 0 0
14 1.01 3 0 0

Atoms # full

778 260 1 -1.054 -8.626902673375781 -2.201577957985868 -5.943592531187404 0 0 0
707 236 2 0.527 -6.679245210873579 -5.465499489446932 -4.032697962829332 0 0 1
706 236 1 -1.054 -7.056078704838994 -4.678165205839207 -4.425554562247032 0 0 1
664 222 1 -1.054 -6.8048384711971295 -6.395919368258076 -7.961382715899136 0 0 1
666 222 2 0.527 -7.440029221572784 -6.675674516613315 -7.302212895865329 0 0 1
665 222 2 0.527 -6.428345588450004 -7.211083210324706 -8.293039310096242 0 0 1
779 260 2 0.527 -9.440848121724645 -2.474008456204688 -5.519906940039986 0 0 0
1096 366 1 -1.054 5.044298258757202 -7.735714399680714 -0.6431352502755008 0 1 0
677 226 2 0.527 4.504770370993363 -5.580252119073943 -7.184923911666597 0 0 0
780 260 2 0.527 -7.990824904535607 -2.872313617758227 -5.695089409650512 0 0 0
1088 363 2 0.527 -8.639149488843408 -6.9819844099302255 -0.6737082144253446 1 1 0
330 110 2 0.527 -7.463434514758333 -2.6798203645039296 -2.413208343156237 0 0 0
328 110 1 -1.054 -8.141593608516047 -2.9627713649461755 -1.7997965590996312 0 0 0
999 333 2 0.527 -0.5334912289981215 -9.406324075944548 -6.182068784594588 0 1 0
329 110 2 0.527 -7.6607123811411855 -3.2263511210941296 -1.0152495534259085 0 0 0
201 67 2 0.527 -6.054701896724762 -8.083258643839812 -3.2180599782821053 0 0 0
626 209 2 0.527 -4.05918495050666 -2.359658347534862 -2.274732844704591 0 0 0
895 299 1 -1.054 -4.548169243691072 -5.2385573190829025 -1.6020161168632603 0 1 0
199 67 1 -1.054 -6.110061585115226 -7.130091712630202 -3.2862007192265708 0 0 0
1349 450 2 0.527 -5.160203982273011 -5.495420005333297 -6.9840013218424115 0 0 1
1348 450 1 -1.054 -5.098956909286982 -4.712260554427684 -6.437059716067061 0 0 1
192 64 2 0.527 -9.241597376801835 -4.212377713722684 -2.1998387208960244 1 0 0
1089 363 2 0.527 -9.381390827297153 -6.317834409784821 -1.8138335511387016 1 1 0
200 67 2 0.527 -5.523087655965343 -6.806155805647055 -2.603000757953783 0 0 0
1462 488 1 -1.054 -4.74472573715622 -8.183959399564728 -0.4823584644902734 0 1 0
1087 363 1 -1.054 -9.282568680557931 -7.155276870032274 -1.360888344389993 1 1 0
102 34 2 0.527 -8.112350836296741 -0.4459748349992534 -0.6745549586669863 1 0 0
166 56 1 -1.054 -7.6164884763905345 -0.14978543154941626 -4.376880925705848 1 0 0
1467 489 2 0.527 -3.9961830021041598 -0.720568462165323 -8.1310136432259 0 0 1
228 76 2 0.527 6.149471065698815 -1.642710564200466 -8.251785924260505 0 0 0
731 244 2 0.527 -2.44771247361974 -3.1902160775837656 -3.388359235853943 0 0 0
1464 488 2 0.527 -4.977975233350035 -8.86639196178892 -1.1117355529109254 0 1 0
110 37 2 0.527 -2.4764755554216054 -2.839281540386377 -0.6931042055294547 0 0 0
897 299 2 0.527 -3.7693039712962664 -5.763089812929422 -1.4163562165186523 0 1 0
313 105 1 -1.054 -4.1880910095390425 -9.065839021911295 -4.445617592474492 0 0 0
167 56 2 0.527 -8.241268499422674 -0.7824901896945189 -4.731239027349708 1 0 0
708 236 2 0.527 -6.647485926051397 -4.621840178190662 -5.289333758361244 0 0 1
863 288 2 0.527 9.407106029769366 -5.5253310105201345 -5.9883196612697684 0 1 0
1113 371 2 0.527 8.972260015939334 -4.56941583388299 -8.287165361723181 0 0 0
1046 349 2 0.527 -8.40026350546369 -8.346776758123047 -2.2892599724666507 0 1 0
47 16 2 0.527 3.552028581176204 -0.5003468399454434 -5.220876981735447 0 0 0
625 209 1 -1.054 -3.909879197219725 -1.7332794016577786 -1.5665010506179815 0 0 0
627 209 2 0.527 -3.9050174006405642 -0.8791601615644673 -1.9985794457021457 0 0 0
992 331 2 0.527 -9.045036553912443 -2.14424257379837 -8.83041697598506 1 0 0
702 234 2 0.527 8.013995592539406 -7.929022956430429 -9.383092497331797 0 0 1
1350 450 2 0.527 -4.546419968765854 -4.976006198747012 -5.701276993788103 0 0 1
403 135 1 -1.054 -7.871393469554283 -8.064087896147083 -6.041506875765048 0 0 1
896 299 2 0.527 -4.290050206872217 -4.675698996227222 -2.3319477057524383 0 1 0
1085 362 2 0.527 4.144553904302258 -0.4673820541749514 -9.125670363181708 0 0 0
404 135 2 0.527 -7.372074856687604 -7.5460310376157365 -5.4102121251536275 0 0 1
1095 365 2 0.527 5.062014548723228 -8.82852965342592 -8.026020898745479 0 1 0
385 129 1 -1.054 -7.0430345678713895 -2.048070226484005 -8.828618693900752 1 0 1
474 158 2 0.527 -2.534652689615088 -2.4708554954651616 -7.2779947003155545 0 0 0
472 158 1 -1.054 -3.381957636252121 -2.4893200966136515 -7.722931136974377 0 0 0
473 158 2 0.527 -4.0105021006124195 -2.7031109757558083 -7.033394801909186 0 0 0
730 244 1 -1.054 -3.3099896956398247 -3.5984184071095235 -3.4663586208453534 0 0 0
998 333 2 0.527 0.9651264691423727 -9.207958564115735 -6.100218908724213 0 1 0
679 227 1 -1.054 -2.488677531380416 -6.824529071226904 -9.293442399218897 0 0 1
732 244 2 0.527 -3.1364484997416264 -4.451860588168368 -3.8635424007726273 0 0 0
53 18 2 0.527 -0.7253829341129308 -1.2572390696127922 -6.388332552408386 0 0 0
259 87 1 -1.054 -2.900890252617005 -5.868797107976782 -4.936653601157804 0 0 0
261 87 2 0.527 -2.3166977932553037 -5.856495775619433 -5.6948111658320775 0 0 0
260 87 2 0.527 -2.4392914516185575 -6.398473491328268 -4.286573202617829 0 0 0
630 210 2 0.527 -0.5729048391720699 -7.323494032563119 -7.0250879863247375 0 0 1
1436 479 2 0.527 0.3044485315818637 -5.407014760006069 -3.5466257215631973 0 1 0
121 41 1 -1.054 0.5465275697630858 -1.4497159279141663 -9.374869019173346 0 0 0
1435 479 1 -1.054 -0.3183738725044467 -5.178364525581602 -2.856664588744402 0 1 0
1485 495 2 0.527 -4.6958833860145175 -9.156456157542571 -8.351279093841944 0 1 1
1437 479 2 0.527 -0.46821343079519373 -4.2397842979622675 -2.970023820291221 0 1 0
1136 379 2 0.527 -1.747484906733356 -7.694706291317633 -1.790853486431537 0 1 0
470 157 2 0.527 0.8983711185980514 -2.102037313479131 -5.257823833489438 0 0 1
471 157 2 0.527 2.1749098290711206 -1.7424176929431914 -4.527737622860984 0 0 1
90 30 2 0.527 1.54353013644028 -7.177095496204856 -2.4980630095772263 0 0 0
663 221 2 0.527 1.7133770042628917 -4.464587337213437 -6.08050155509481 0 0 0
661 221 1 -1.054 1.536006755305733 -4.8742830119190135 -6.927215372245591 0 0 0
662 221 2 0.527 2.224880556071243 -5.531686093297156 -7.0247301097333406 0 0 0
469 157 1 -1.054 1.4466912123140645 -2.3635779054881416 -4.518109934219853 0 0 1
813 271 2 0.527 -2.195227589359905 -0.0831997619688476 -4.808983348178672 0 0 0
54 18 2 0.527 0.062256855787383714 -1.604738988397516 -7.6336319545725 0 0 0
628 210 1 -1.054 -0.7519614852170697 -6.39995811613862 -7.201879345442915 0 0 1
52 18 1 -1.054 -0.27287456572260815 -1.9818071596057303 -6.820156950643732 0 0 0
867 289 2 0.527 -9.15010803799258 -0.25765308363691375 -8.26803309427403 1 0 0
1135 379 1 -1.054 -2.227978907300395 -6.969078530888561 -2.189381920205629 0 1 0
629 210 2 0.527 0.07517422080658598 -5.955348870606848 -7.016395657750282 0 0 1
89 30 2 0.527 2.702256712229321 -6.2550000533322905 -2.183426835466829 0 0 0
1223 408 2 0.527 1.5922432493011058 -4.4858376416323535 -8.669656165040925 0 0 1
88 30 1 -1.054 2.1224582441396027 -6.526355028165953 -2.8950694809301876 0 0 0
1222 408 1 -1.054 1.7906804017748446 -4.071162499448935 -9.509240760035992 0 0 1
1137 379 2 0.527 -1.5489181036484503 -6.349761374182545 -2.4568847281994977 0 1 0
132 44 2 0.527 -0.9391090042349504 -1.2745413638411147 -2.7452399565397885 0 0 0
681 227 2 0.527 -2.395495046520943 -6.757699777194032 -8.343134070722645 0 0 1
131 44 2 0.527 0.036343831080911215 -2.1842120763774204 -3.4614062665195284 0 0 0
130 44 1 -1.054 -0.7938551223246595 -2.1897773698476053 -2.98498859177392 0 0 0
1119 373 2 0.527 3.4967245583926907 -7.55982075311044 -3.9620393103204856 0 1 0
1483 495 1 -1.054 -5.420785512828815 -8.618862377011569 -8.670253820403335 0 1 1
715 239 1 -1.054 1.6689757014548032 -1.7423283537593726 -1.0948455629856166 0 0 0
1018 340 1 -1.054 1.5507065841474468 -5.031160283263289 -0.1710456616335776 -1 0 0
1019 340 2 0.527 0.6899456220038633 -5.163836819212985 -0.5681886433520127 -1 0 0
1111 371 1 -1.054 8.648745720414901 -5.129643379273446 -7.5816735870839125 0 0 0
1061 354 2 0.527 7.351496587795449 -8.858094560795506 -3.986545030604269 0 1 0
191 64 2 0.527 8.993178851564679 -4.733727562709247 -3.3619658526967218 0 0 0
226 76 1 -1.054 5.582071540950237 -1.7865617495809492 -9.00914956048862 0 0 0
190 64 1 -1.054 8.964227260098973 -4.602906834391003 -2.4141880393275477 0 0 0
46 16 1 -1.054 3.767422805703516 -0.7858826052467105 -4.3330089146163235 0 0 0
568 190 1 -1.054 6.971538594138288 -6.904611374213186 -4.184836889125027 0 0 1
39 13 2 0.527 2.7006593364040743 -4.235605628801687 -1.6992906231078235 0 0 0
716 239 2 0.527 2.39435515048773 -2.2305304312997896 -1.4843560897441552 0 0 0
1117 373 1 -1.054 4.170652004196029 -8.142446002086746 -4.3121888003419695 0 1 0
1139 380 2 0.527 -9.170831876840216 -9.093893879012697 -9.430902019365686 1 1 0
332 111 2 0.527 6.568012832723053 -4.344913722411728 -2.396196623398102 0 0 0
991 331 1 -1.054 9.077384548249558 -1.9809884737887185 -8.983807995867453 0 0 0
109 37 1 -1.054 -1.8460068089813682 -3.212663186989854 -0.077206198444566 0 0 0
233 78 2 0.527 7.991796581095134 -1.6586714581136102 -7.437565622632027 0 0 0
38 13 2 0.527 2.838961304311921 -3.362130672589948 -2.9280368582839316 0 0 0
37 13 1 -1.054 3.34243381914529 -3.7378080218523824 -2.2058062768998283 0 0 0
147 49 2 0.527 6.067222708182701 -3.46703292024252 -6.3848544472498325 0 0 0
405 135 2 0.527 -8.773113275401547 -8.027152110851723 -5.722489349020062 0 0 1
914 305 2 0.527 5.476173610909473 -4.775961968610763 -0.4577703989172939 0 0 0
978 326 2 0.527 6.533136349934388 -8.416797019540313 -0.978676457952492 0 1 0
185 62 2 0.527 8.68985568739744 -2.127739785200496 -3.15785748743445 0 0 0
976 326 1 -1.054 7.350828793435657 -8.839824384833221 -1.2407107670412216 0 1 0
717 239 2 0.527 1.7288967014301644 -1.9300959481636726 -0.1581557207138573 0 0 0
146 49 2 0.527 6.627802583218223 -4.846204195730599 -6.659699851021417 0 0 0
676 226 1 -1.054 3.778717432303255 -6.203773704492082 -7.1675164704646015 0 0 0
997 333 1 -1.054 0.20217200077666142 -8.998615040195105 -6.639023953150498 0 1 0
1093 365 1 -1.054 5.603450278512909 -8.242360348891115 -7.497354696788403 0 1 0
315 105 2 0.527 -3.9952309859828814 -8.176487887651382 -4.148810211991535 0 0 0
862 288 1 -1.054 9.402100309499694 -5.818562973126236 -5.07715281462353 0 1 0
1118 373 2 0.527 4.924441011954652 -7.572738596975656 -4.465390155383154 0 1 0
186 62 2 0.527 8.234843378566012 -0.778617170554325 -3.6723817168146606 0 0 0
184 62 1 -1.054 8.363017557149519 -1.6878753851843236 -3.9426703260415055 0 0 0
864 288 2 0.527 -8.786794874437275 -5.578181216608761 -4.7429331841860884 1 1 0
333 111 2 0.527 5.07086087859947 -4.507520468142561 -2.551110409362825 0 0 0
536 179 2 0.527 6.158661650452412 -7.060258458714432 -8.890298475551889 0 0 1
145 49 1 -1.054 5.804656178656101 -4.376991335854232 -6.523669222470163 0 0 0
314 105 2 0.527 -3.4726043298712748 -9.279413607172778 -5.044533071000134 0 0 0
1112 371 2 0.527 8.47257433666481 -5.970210676381431 -8.004338132447563 0 0 0
331 111 1 -1.054 5.877136357490022 -5.006935506089655 -2.421729078414997 0 0 0
1098 366 2 0.527 4.1008641038622375 -7.699817474268091 -0.48540618324864226 0 1 0
977 326 2 0.527 7.912462454840561 -8.119670274371721 -1.5273825914516586 0 1 0
569 190 2 0.527 7.819515350042881 -6.479204648379028 -4.312114546131368 0 0 1
570 190 2 0.527 6.4949027391497935 -6.318609353341152 -3.5969126151060467 0 0 1
48 16 2 0.527 3.414029203153307 -0.09905270320103732 -3.767665915630805 0 0 0
234 78 2 0.527 7.671650806692771 -1.6035017091609678 -5.958929019990083 0 0 0
1094 365 2 0.527 5.549892311724731 -8.60023096220921 -6.61118585046931 0 1 0
678 226 2 0.527 4.199439437006166 -7.059878794561882 -7.08806762500218 0 0 0
700 234 1 -1.054 8.614686529045237 -7.917333579616174 -8.637928880057043 0 0 1
701 234 2 0.527 8.338529952633838 -8.656040619602999 -8.09544892468894 0 0 1
232 78 1 -1.054 7.282638748416947 -1.4693457106183345 -6.823166736615889 0 0 0
1045 349 1 -1.054 -7.946352654193978 -9.156386099957048 -2.52321022889989 0 1 0
111 37 2 0.527 -0.9921840431545785 -3.042177088451523 -0.47489482179128295 0 0 0
227 76 2 0.527 5.543106529151144 -2.7384054748449635 -9.102478544923576 0 0 0
675 225 2 0.527 -5.523123061468491 -4.513259342587047 -0.40343951528994815 1 0 1
253 85 1 -1.054 1.336522887880701 -9.194898941278746 -2.678248705217819 0 0 0
1484 495 2 0.527 -5.890038590843214 -9.186874603576053 -9.281317408123506 0 1 1
811 271 1 -1.054 -2.1039958628803603 -0.271467221363892 -5.743042869198012 0 0 0
387 129 2 0.527 -6.628608984728622 -2.8759195018677692 -9.071830649561477 1 0 1
1463 488 2 0.527 -3.9649055130145756 -8.520786025179849 -0.04115184187219967 0 1 0
122 41 2 0.527 0.8929443254742147 -2.3293761857279467 -9.524629865621709 0 0 0
1405 469 1 -1.054 -6.8339884033402845 -4.126628045617633 6.556509380455598 0 0 0
502 168 1 -1.054 -4.989237247776018 -8.984764079585334 5.0661822861402985 1 0 0
693 231 2 0.527 -5.9831144284215405 -1.9090772454531635 4.219618132333199 0 0 0
691 231 1 -1.054 -6.0505404946542 -1.7276488518314599 5.157046810254673 0 0 0
692 231 2 0.527 -6.3423828569121525 -0.8172797849612703 5.204913894726051 0 0 0
1406 469 2 0.527 -6.416027523152448 -3.2685564594135794 6.629013907976766 0 0 0
1407 469 2 0.527 -6.248101610851606 -4.632113751410401 5.993077119559846 0 0 0
898 300 1 -1.054 -5.747461908774687 -2.211332121768672 2.4440876024164933 1 1 0
689 230 2 0.527 -4.64749831836932 -6.451263596871996 6.356464404595352 0 0 0
449 150 2 0.527 -8.08039892552161 -1.0577125189713978 3.042647177912725 1 0 0
899 300 2 0.527 -6.039266759474689 -2.7120835978578306 1.6822917273768745 1 1 0
688 230 1 -1.054 -4.62932790086711 -6.298440782890218 5.411715706633906 0 0 0
690 230 2 0.527 -4.987336191965297 -7.1008096865109405 5.031887746976011 0 0 0
448 150 1 -1.054 -8.719535096796927 -1.7450882778000993 3.2304091917285334 1 0 0
450 150 2 0.527 -8.356950763526184 -2.210528724717382 3.984155062437692 1 0 0
548 183 2 0.527 -5.342022567725759 -0.11498138160615845 9.114469776616339 1 0 0
853 285 1 -1.054 -4.639696318816011 -7.013552617840702 8.073799450450831 0 0 -1
854 285 2 0.527 -3.8453393792157122 -6.7279479167567775 8.52508881795297 0 0 -1
123 41 2 0.527 1.22432833940357 -0.864176857175341 9.340585250161237 0 0 -1
1422 474 2 0.527 -5.683505625118782 -8.841735080438037 1.915992857394487 0 1 0
302 101 2 0.527 -7.4565581032663095 -5.175345002842039 8.06644667446498 1 0 -1
301 101 1 -1.054 -8.010385465584228 -5.359499911644412 8.82512796065095 1 0 -1
393 131 2 0.527 -8.375978209614455 -7.384725834484673 6.489532019360382 0 0 0
718 240 1 -1.054 5.672846020757088 -9.230513315028992 3.100988630662208 -1 0 0
391 131 1 -1.054 -9.270913973719898 -7.216019408210666 6.1948064523044515 0 0 0
503 168 2 0.527 -4.898594539187435 -9.281935237682669 4.160804876853376 1 0 0
547 183 1 -1.054 -5.833750621567903 -0.26005947573168164 8.306143781025998 1 0 0
746 249 2 0.527 6.336957261141862 -4.5590028303640295 5.652020304413497 0 0 0
287 96 2 0.527 -4.377268065203674 -2.4034512614757775 5.997207804968944 0 0 -1
286 96 1 -1.054 -3.8527561559277324 -2.7835601187204597 6.701934395148953 0 0 -1
288 96 2 0.527 -3.313593355541438 -3.4457489952720257 6.269448081203006 0 0 -1
1040 347 2 0.527 -0.14288892169862066 -0.30921566963725766 6.93438621102317 0 0 -1
1421 474 2 0.527 -6.7849866155287355 -9.4100243352742 2.7852972758891656 0 1 0
584 195 2 0.527 7.251642320440244 -1.4578450455194805 0.08434647982201682 -1 0 0
392 131 2 0.527 -9.479117461897856 -6.3493261856512175 6.543703586883023 0 0 0
855 285 2 0.527 -4.994683159917515 -7.707803479564285 8.628988732160792 0 0 -1
913 305 1 -1.054 5.308433844194536 -4.274907785773396 0.3403794161697711 0 0 0
561 187 2 0.527 -2.9278044428645416 -8.250523840977213 5.099730393558739 0 0 0
900 300 2 0.527 -5.037260773502815 -1.66191334751242 2.1124425252445356 1 1 0
559 187 1 -1.054 -2.1040703613252596 -8.223412723835747 4.612942749331445 0 0 0
674 225 2 0.527 -6.589534974766873 -4.851327527319613 0.6165500672891486 1 0 1
325 109 1 -1.054 -7.904797911132098 -6.261900759868774 0.8205561157319128 0 0 0
560 187 2 0.527 -1.4329971430243624 -8.423690076103716 5.26546461209548 0 0 0
1070 357 2 0.527 3.544173889256937 -7.4458994165079595 4.269767454643711 -1 0 -1
1369 457 1 -1.054 -8.592251193566357 -8.387634160290673 2.197094368215737 0 1 0
326 109 2 0.527 -8.60750711141118 -5.655610506078899 1.0547503911803773 0 0 0
327 109 2 0.527 -8.146330304106746 -7.084885306422073 1.2455191952640856 0 0 0
1370 457 2 0.527 -9.017016412562004 -8.986893797922557 1.583337524352773 0 1 0
1195 399 1 -1.054 1.105492845289744 -9.38710627819442 1.9644482171670372 0 1 0
1097 366 2 0.527 5.435045173755862 -7.388051311787523 0.15853941830440377 0 1 0
714 238 2 0.527 -2.4404169271184095 -9.304012758781198 2.3618612679554225 0 0 0
712 238 1 -1.054 -2.8921827321374876 -9.150931480722855 1.531976442067874 0 0 0
709 237 1 -1.054 -2.1168585431834748 -2.4971887329893114 8.728499660635975 0 -1 0
710 237 2 0.527 -2.579427367125465 -2.5601602197720092 7.892856353574757 0 -1 0
556 186 1 -1.054 -3.87629541953004 -0.6903467664521656 1.3857902423336466 0 0 0
557 186 2 0.527 -3.841486524051345 -0.6404402914416973 0.43052445263186634 0 0 0
1039 347 1 -1.054 -1.0935488841505094 -0.3535260634698858 7.03693997432752 0 0 -1
210 70 2 0.527 -0.06598015295896786 -3.431224520623343 3.557182614699286 0 0 -1
537 179 2 0.527 5.872794028441319 -5.907607562266868 9.223818755775937 0 0 0
1362 454 2 0.527 -0.8414324456568263 -3.946125011825724 8.364948590856883 0 0 0
209 70 2 0.527 -1.4822686020175393 -3.6205776399704375 3.0570069716874393 0 0 -1
208 70 1 -1.054 -0.9645667193745258 -3.132754068266202 3.6975130415135506 0 0 -1
1295 432 2 0.527 2.03320680732031 -3.8322419234866887 6.4224057679266355 0 0 0
240 80 2 0.527 -2.787287087290058 -5.534483793131308 1.8793480498532098 0 0 -1
1296 432 2 0.527 2.7832658009544584 -3.5634388980074565 7.7096740566422355 0 0 0
239 80 2 0.527 -2.2751458884407576 -4.296130915230434 1.1750066815569422 0 0 -1
699 233 2 0.527 -1.5560695380477796 -4.160646478396915 5.123810556621603 0 0 0
680 227 2 0.527 -1.9289910729254336 -6.1291105603577245 9.414086153391775 0 0 0
1454 485 2 0.527 3.1305782777104394 -6.002382623502816 5.49464210773154 0 0 0
238 80 1 -1.054 -2.095642281568529 -4.87383332049973 1.9168108725064386 0 0 -1
1432 478 1 -1.054 4.885027486320185 -3.1568701063785642 5.311663466765866 0 1 0
1196 399 2 0.527 0.7050194213823229 -8.57442188938257 2.273317410153785 0 1 0
1360 454 1 -1.054 -0.3051509493502049 -4.6565494546405874 8.01290549620591 0 0 0
697 233 1 -1.054 -1.9585911410746153 -4.695443052087782 5.808064924459675 0 0 0
1020 340 2 0.527 1.39333876232344 -5.097949376500872 0.7707662265180772 -1 0 0
1141 381 1 -1.054 0.2009205538621277 -6.904237121927858 3.171443258543185 0 1 0
1216 406 1 -1.054 -0.24864055137869556 -8.928618448220892 6.60529410336612 0 1 0
272 91 2 0.527 -0.788539482013082 -1.2727210058353986 3.095117500776876 0 0 -1
271 91 1 -1.054 -0.6672223970101427 -0.41643344611483 2.6848872476419245 0 0 -1
698 233 2 0.527 -2.7366513332566846 -5.06897041989083 5.394138979617095 0 0 0
1143 381 2 0.527 -0.13007653818200282 -6.131745421636777 2.713259287612173 0 1 0
1361 454 2 0.527 -0.7623706902306466 -4.931170617963167 7.2180669040894685 0 0 0
994 332 1 -1.054 1.5332987299959786 -4.028865412042524 2.597705426062509 0 0 -1
1142 381 2 0.527 -0.559152988154274 -7.2495289622323735 3.639734639351053 0 1 0
995 332 2 0.527 1.8364660161965247 -3.1210627169445138 2.5829094455692356 0 0 -1
996 332 2 0.527 2.1406272365415937 -4.475115693195781 3.1878306880026734 0 0 -1
622 208 1 -1.054 1.675691447366102 -6.9352032460835105 7.780737440896836 0 0 0
1455 485 2 0.527 2.0487325212711234 -6.198534271299278 4.453951230580211 0 0 0
1453 485 1 -1.054 2.8035331045678387 -5.649796510914169 4.667019284226109 0 0 0
60 20 2 0.527 1.5135255041672053 -7.995878502466803 0.5749194079469948 0 0 0
1294 432 1 -1.054 2.508353494846931 -3.1472071796947594 6.892722751933942 0 0 0
1041 347 2 0.527 -1.2239715743251924 -0.674182012004561 7.929355090161074 0 0 -1
264 88 2 0.527 3.4041820818783766 -6.753830391635325 7.505425595615659 0 0 0
434 145 2 0.527 -1.7587001059682503 -8.481428009710962 9.272077559394525 0 0 0
267 89 2 0.527 0.8808281218407217 -1.0718409397598734 2.198376008689266 0 0 0
262 88 1 -1.054 4.226668148838732 -6.453567768083481 7.118651642952436 0 0 0
1270 424 1 -1.054 4.714000175333084 -4.166327361101459 8.90829249421861 0 0 0
1224 408 2 0.527 1.1072253130572136 -4.386940838429415 8.952693124447702 0 0 0
309 103 2 0.527 2.124648861524891 -1.17307224769087 4.23056158606002 0 0 -1
307 103 1 -1.054 1.91211825792805 -0.8435182076753307 5.103751095112175 0 0 -1
308 103 2 0.527 1.9206915572208398 -1.620824525093023 5.662281713690659 0 0 -1
433 145 1 -1.054 -1.5502589773226338 -9.327827992314456 8.876610205563857 0 0 0
1217 406 2 0.527 -0.7596820444899706 -9.018747840308388 7.409625103673243 0 1 0
558 186 2 0.527 -2.965986178905119 -0.8180034751751588 1.6527657003085388 0 0 0
623 208 2 0.527 0.9986743441033656 -7.545572090893602 7.488619727072251 0 0 0
1131 377 2 0.527 8.554522681589415 -0.08372887120464512 6.919212547649355 0 0 -1
535 179 1 -1.054 6.260602602875425 -6.782260351960321 9.252490247725117 0 0 0
624 208 2 0.527 1.1938621405513086 -6.15291783265309 8.049261364404842 0 0 0
386 129 2 0.527 -6.801965893917961 -1.4436631726297282 9.52241638116885 1 0 0
266 89 2 0.527 2.3203161857204258 -0.6137288957579905 2.297928564812427 0 0 0
135 45 2 0.527 -6.380267859884336 -0.48974059597305164 1.9561897499939906 0 0 0
915 305 2 0.527 5.9247235051289735 -3.543687794098906 0.2986729639035275 0 0 0
719 240 2 0.527 6.314439739318026 -8.524311760730962 3.177617168445071 -1 0 0
59 20 2 0.527 2.0557594683714235 -6.664081680428426 0.1014188562875713 0 0 0
642 214 2 0.527 5.33765566928164 -9.411090306662881 6.887848826665792 0 0 0
381 127 2 0.527 7.577540110463218 -8.436434107259322 6.721640006010755 0 0 0
745 249 1 -1.054 7.126718478248684 -5.052527016466437 5.873258072152915 0 0 0
1371 457 2 0.527 -9.210662904169983 -8.310017797729813 2.9235774765806593 0 1 0
916 306 1 -1.054 9.27871845170106 -3.223819030375692 6.22552083447458 0 0 -1
562 188 1 -1.054 7.804533893581919 -7.6967792173466165 3.794098507271938 -1 0 0
563 188 2 0.527 8.497200949503355 -7.399020500079044 4.3838333151284825 -1 0 0
722 241 2 0.527 6.441870446015233 -5.323815436969814 1.5524342077444615 -1 0 0
564 188 2 0.527 7.541818580285899 -6.910235135738656 3.3160146940056094 -1 0 0
58 20 1 -1.054 2.3181940517590984 -7.566109428871704 0.28501922813006253 0 0 0
993 331 2 0.527 8.998167121575516 -1.9198990475363527 9.117273589431761 0 0 -1
1433 478 2 0.527 5.302254750161744 -2.38047753343489 5.684987789993324 0 1 0
1130 377 2 0.527 9.286681491848132 -1.4086256610430787 6.89695858592086 0 0 -1
747 249 2 0.527 6.8567635576763735 -5.9698076485670155 5.829035518675177 0 0 0
1271 424 2 0.527 3.916027379050087 -4.61133588558586 9.193672722056974 0 0 0
583 195 1 -1.054 7.389856191802398 -2.133640184785234 0.7479976684350529 -1 0 0
1357 453 1 -1.054 5.2142984296791415 -2.3416141090923954 2.3020264236970363 0 1 0
1358 453 2 0.527 4.799654449511051 -3.1337108663252096 1.9601373454106596 0 1 0
1359 453 2 0.527 5.068589771513402 -2.383270021659481 3.24715542600428 0 1 0
353 118 2 0.527 5.63707541912151 -1.2892309271173836 8.375878869472722 0 0 -1
1434 478 2 0.527 4.049603668128251 -3.2259889826830372 5.773750772024512 0 1 0
263 88 2 0.527 4.870518483447656 -7.1102536151161075 7.384086174608857 0 0 0
379 127 1 -1.054 6.771022929301402 -7.923626325976216 6.66878857907183 0 0 0
721 241 1 -1.054 7.103158905041596 -5.5011186274836 2.2213857759527347 -1 0 0
723 241 2 0.527 7.669060125098834 -4.729198747992449 2.2099596372988515 -1 0 0
917 306 2 0.527 -8.966891728609095 -3.7004427540212586 6.41818502781201 1 0 -1
265 89 1 -1.054 1.7818244409127448 -1.3811609127284505 2.1047711304373067 0 0 0
1272 424 2 0.527 4.808209231145 -4.409651409185777 7.987340211325556 0 0 0
585 195 2 0.527 6.652320772668812 -2.0333678819545904 1.349846522757744 -1 0 0
1043 348 2 0.527 8.471504040427355 -1.549872241111812 4.135560699179722 -1 0 0
1071 357 2 0.527 4.146294594345932 -8.743082663257402 3.7731091323425616 -1 0 -1
1069 357 1 -1.054 3.4835083031937923 -8.39589226472019 4.370108480044609 -1 0 -1
1042 348 1 -1.054 7.680893415188553 -1.4642106598065894 4.668319538092016 -1 0 0
352 118 1 -1.054 5.685623500627848 -1.33941212688101 7.4212271105643985 0 0 -1
711 237 2 0.527 -2.8046465014026545 -2.573286493448978 9.38985576896328 0 -1 0
354 118 2 0.527 6.071925002843972 -0.5046346302696971 7.156363514884436 0 0 -1
918 306 2 0.527 8.631766693860683 -3.9077537106210336 6.052541496999407 0 0 -1
380 127 2 0.527 6.826663466216928 -7.3124517173099175 7.403366538343985 0 0 0
1044 348 2 0.527 7.897894951261613 -1.9012658370545923 5.491804907108831 -1 0 0
1129 377 1 -1.054 9.283250809209132 -0.55278530392067 7.325631623900893 0 0 -1
673 225 1 -1.054 -6.070179876602528 -4.122145029771176 0.2777311746206159 1 0 1
684 228 2 0.527 -8.951447975804392 -3.1165632393868377 1.879245359022697 1 0 1
682 228 1 -1.054 -9.380816493992409 -3.708097114078547 1.261211861490498 1 0 1
683 228 2 0.527 8.934072935090988 -3.2035605678880223 0.9194379401338111 0 0 1
303 101 2 0.527 -7.396369766131953 -5.610532905773484 9.515202031934068 1 0 -1
242 81 2 0.527 -6.719620178828785 0.16650306036628315 -6.136101030078793 0 0 0
1036 346 1 -1.054 -8.262204508751514 6.242914940173247 -4.947248296935724 0 0 0
1037 346 2 0.527 -8.895189791189521 5.528242752962548 -5.016590475071782 0 0 0
866 289 2 0.527 -8.83336787262277 1.0780479347284473 -8.906375997612296 1 0 0
686 229 2 0.527 -8.121800243364422 7.317986329673104 -6.554159220766358 0 -1 1
1062 354 2 0.527 7.5803429424884925 8.854960873022268 -3.320234412904548 0 0 0
356 119 2 0.527 -4.424348055040267 5.265160561056085 -5.403587290938018 0 -1 0
355 119 1 -1.054 -4.2271339313643095 4.726195092508977 -4.637520792206203 0 -1 0
865 289 1 -1.054 -8.865952119446465 0.632382184559166 -8.059880065282007 1 0 0
685 229 1 -1.054 -7.9420536658196905 7.905327086420591 -7.28829616919355 0 -1 1
1122 374 2 0.527 9.18106180266237 7.91898259777934 -6.522153628055705 0 0 0
592 198 1 -1.054 -8.651894703350168 3.35498057139565 -6.224590784537771 0 0 0
1102 368 1 -1.054 -3.885060002796183 2.6942546024452128 -0.9396395236932271 0 0 0
1103 368 2 0.527 -2.981568710632848 2.38076572695779 -0.980422600547266 0 0 0
1413 471 2 0.527 4.5224648839840835 1.3523377588412568 -0.20376156998721306 0 0 0
243 81 2 0.527 -7.253451371548217 0.6678697762978398 -7.461076079418735 0 0 0
593 198 2 0.527 -7.727665300498454 3.260955873717956 -5.9939516141614195 0 0 0
1080 360 2 0.527 -5.431423945602157 3.2705890225113325 -4.676857998390823 0 0 0
1397 466 2 0.527 -7.869013881372144 6.10614063696319 -8.479762992695758 0 0 1
197 66 2 0.527 -4.744801915455737 1.3149491938340088 -3.280127647098346 1 0 0
1415 472 2 0.527 -4.59445719931395 5.69827624186707 -2.403061231094335 0 0 0
1210 404 1 -1.054 -6.782386703385734 2.879521128899606 -0.8247529941008978 0 1 0
348 116 2 0.527 -4.378555921146183 6.574958129316304 -7.65297165691882 0 0 0
346 116 1 -1.054 -4.89036398530112 5.884855610801093 -7.231016584916082 0 0 0
347 116 2 0.527 -5.527288749003095 5.618858362898477 -7.894196313629852 0 0 0
1038 346 2 0.527 -8.339192796395198 6.544712955318335 -4.042137359999352 0 0 0
1414 472 1 -1.054 -4.585296826257784 6.25220141886073 -1.622472972088623 0 0 0
1269 423 2 0.527 -6.484191102018564 5.802666546570233 -1.6641541649806726 0 0 0
767 256 2 0.527 -8.636810759140143 6.629067523629125 -1.890110031004971 1 0 0
766 256 1 -1.054 -9.324272910227737 7.254205906652359 -2.1199640266176614 1 0 0
606 202 2 0.527 -7.891997177833299 2.97212176333759 -3.3318437074485745 0 0 0
1212 404 2 0.527 -7.171127339176344 2.017444561039456 -0.6766321215481153 0 1 0
1267 423 1 -1.054 -7.25425255819065 5.362630261867896 -2.024165936834577 0 0 0
1286 429 2 0.527 6.715081366061007 0.8863374112079825 -0.10699659955177054 0 0 0
340 114 1 -1.054 6.460405642676433 5.4247231463798045 -6.89361280904915 -1 -1 0
1078 360 1 -1.054 -6.190311022472288 2.7351979045082526 -4.908551362693687 0 0 0
1079 360 2 0.527 -5.839436259406238 2.0601949004622764 -5.489492762070395 0 0 0
1211 404 2 0.527 -5.852247846126927 2.7024318694103986 -0.9651672166987364 0 1 0
357 119 2 0.527 -3.2710720598952276 4.713811971612525 -4.5924939089356185 0 -1 0
1465 489 1 -1.054 -4.325398956779432 0.13983495559086023 -8.390932637294851 0 0 1
594 198 2 0.527 -8.986875743499402 2.4585110738347904 -6.243700728753099 0 0 0
177 59 2 0.527 -2.5946986062461788 0.8134339148960361 -8.541287326296551 0 -1 0
687 229 2 0.527 -7.757046307135813 8.750826290288344 -6.879470504380329 0 -1 1
100 34 1 -1.054 -8.109967207125544 0.43844734002579244 -0.308458262667374 1 0 0
1035 345 2 0.527 -3.137379483139962 4.487227810696631 -7.749698019900382 0 0 0
1268 423 2 0.527 -7.292002782799186 4.526573952931869 -1.5596018226676174 0 0 0