LAMMPS data file via write_data, version 23 Jun 2022, timestep = 100000

4948 atoms
5 atom types
2432 bonds
1 bond types
1216 angles
1 angle types

-16.16 16.16 xlo xhi
-16.16 16.16 ylo yhi
-40 40 zlo zhi

Masses

1 15.9994
2 1.008
3 28.99
4 35.453
5 26.9815

Pair Coeffs # lj/cut/tip4p/long

1 0.185199 3.1589
2 0 0
3 0.0469 2.4299
4 0.15 4.0447
5 11.697 2.574

Bond Coeffs # harmonic

1 0 0.9572

Angle Coeffs # harmonic

1 0 104.52

Atoms # full

201 0 5 0 -12.736372611631833 -13.930332303115307 -26.320547076275712 0 -6 0
199 0 5 0 -14.671466863387327 -13.970347224362099 -24.2822557604287 0 -6 0
457 0 5 0 -12.608311917245576 -13.727803662827352 -22.42187813820897 0 -6 0
203 0 5 0 -10.70942818540978 -13.873798605962827 -24.339338121979534 0 -6 0
204 0 5 0 -12.65995493590055 -11.782231385845694 -24.424820832658398 0 -6 0
454 0 5 0 -14.552885588995423 -11.774387074187027 -22.346015890291703 0 -6 0
198 0 5 0 -14.689523556287073 -11.917876475570766 -26.281331812301573 0 -6 0
458 0 5 0 -10.697234513624355 -11.805011785842225 -22.36913055767392 0 -6 0
202 0 5 0 -10.684603908614536 -11.820720673553522 -26.381251289931715 0 -6 0
231 0 5 0 -14.555071457659865 -9.754960959522132 -24.49205964402221 0 -6 0
489 0 5 0 -12.642381857153222 -9.742062050664462 -22.37496112435571 0 -6 0
233 0 5 0 -12.599407683703209 -9.847779604671617 -26.462751105846547 0 -6 0
235 0 5 0 -10.661671255773703 -9.848846371054153 -24.351602925458256 0 -6 0
422 0 5 0 -14.653985775476503 -15.938083272448523 -22.354519177741494 0 -6 0
172 0 5 0 -12.705566811809943 -15.861992862198312 -24.25532130719043 0 -6 0
166 0 5 0 -14.781404780219733 -15.965927861008808 -26.31002053866405 0 -6 0
426 0 5 0 -10.691524575320807 -15.894321061337148 -22.389182666510404 0 -6 0
170 0 5 0 -10.641027625348524 -15.862288750916004 -26.292992178653698 0 -6 0
461 0 5 0 -8.62681749156591 -13.876349112063306 -22.401901761048304 0 -6 0
205 0 5 0 -8.675167341052797 -13.894088429477621 -26.36242196656238 0 -6 0
208 0 5 0 -8.676605778312128 -11.844951458976906 -24.347900236380944 0 -6 0
237 0 5 0 -8.67405350287111 -9.751778718798095 -26.315415583489763 0 -6 0
176 0 5 0 -8.645920866761966 -15.89283432660358 -24.285810962222506 0 -6 0
493 0 5 0 -8.636193619442814 -9.771257056797044 -22.41537227044281 0 -6 0
491 0 5 0 -10.557874088485667 -9.804408265816852 -20.356447650810747 0 -6 0
432 0 5 0 -8.57142266800682 -15.861593525433609 -20.458384731563047 0 -6 0
464 0 5 0 -8.716989533582813 -11.83133255327843 -20.442931822443438 0 -6 0
487 0 5 0 -14.617822292084142 -9.770563329182762 -20.3710314883444 0 -6 0
459 0 5 0 -10.627559398070122 -13.90465573018196 -20.446089721761997 0 -6 0
460 0 5 0 -12.51022656016525 -11.753751061177026 -20.339701529806373 0 -6 0
455 0 5 0 -14.559802435496941 -13.786763026554912 -20.44366874898327 0 -6 0
428 0 5 0 -12.66337512176077 -15.904651182776286 -20.432567639548544 0 -6 0
467 0 5 0 -2.68253490631788 -13.843951838532204 -20.404631358630876 0 -6 0
207 0 5 0 -6.694551015047383 -13.75223494807103 -24.352563357044748 0 -6 0
209 0 5 0 -4.646627382523244 -13.862440215711006 -26.501467329247152 0 -6 0
465 0 5 0 -4.642518678901407 -13.844594758815978 -22.420318853387105 0 -6 0
211 0 5 0 -2.752392206449301 -13.830713592216636 -24.372470211295177 0 -6 0
212 0 5 0 -4.71741184462371 -11.793829192107882 -24.421139101016678 0 -6 0
206 0 5 0 -6.693829406713472 -11.847082270134328 -26.374073831687863 0 -6 0
462 0 5 0 -6.651908794640846 -11.787555805095854 -22.347224492952574 0 -6 0
466 0 5 0 -2.5931534273584367 -11.847086075993158 -22.385296709708193 0 -6 0
210 0 5 0 -2.662528399468208 -11.841578033901397 -26.324754799425232 0 -6 0
239 0 5 0 -6.639151636543457 -9.812391279500131 -24.358835166197267 0 -6 0
241 0 5 0 -4.6266463681023495 -9.795151609633786 -26.550741168285132 0 -6 0
497 0 5 0 -4.651505569777397 -9.80266584861723 -22.406444868007018 0 -6 0
243 0 5 0 -2.626274203001473 -9.840646582920819 -24.426882402116636 0 -6 0
430 0 5 0 -6.573266689700365 -15.904407861946128 -22.375090706390203 0 -6 0
180 0 5 0 -4.694384807023861 -15.922990155413952 -24.457963629796 0 -6 0
434 0 5 0 -2.6205961995883547 -15.83652940327334 -22.427829731967403 0 -6 0
174 0 5 0 -6.708582905720578 -15.922019434736237 -26.32167150099614 0 -6 0
178 0 5 0 -2.617051415734004 -15.873856044529864 -26.26619733765473 0 -6 0
213 0 5 0 -0.5936881942055926 -13.833815532419962 -26.353010863437078 0 -6 0
469 0 5 0 -0.5704088326297346 -13.806264966916032 -22.330375600438668 0 -6 0
216 0 5 0 -0.650515492549297 -11.848431157812177 -24.40792272285736 0 -6 0
245 0 5 0 -0.5731002611833905 -9.882327379841618 -26.426913951916966 0 -6 0
184 0 5 0 -0.5423001574319141 -15.82696390174754 -24.38300974624783 0 -6 0
501 0 5 0 -0.5933401409927698 -9.839896367436804 -22.332016833757102 0 -6 0
436 0 5 0 -4.56854852450088 -15.949431986252314 -20.424416102104473 0 -6 0
472 0 5 0 -0.5748958752779323 -11.806330382695284 -20.370800891365874 0 -6 0
440 0 5 0 -0.5821606806054305 -15.869755207165868 -20.44382947121349 0 -6 0
463 0 5 0 -6.63889138139397 -13.837619947021789 -20.464498903420747 0 -6 0
495 0 5 0 -6.714091085781726 -9.78377149819091 -20.406728311648692 0 -6 0
468 0 5 0 -4.638874795738728 -11.75504562514288 -20.42429136967362 0 -6 0
499 0 5 0 -2.6997309658801165 -9.708559133568446 -20.478218939334376 0 -6 0
471 0 5 0 1.4303640567835247 -13.729125600696154 -20.420218507103996 0 -6 0
215 0 5 0 1.5525740117953073 -13.859322065940402 -24.266577724725696 0 -6 0
438 0 5 0 1.4623440443975868 -15.788996560990201 -22.32863323993721 0 -6 0
473 0 5 0 3.507239801900727 -13.81089707448318 -22.307160965898753 0 -6 0
217 0 5 0 3.437874670240261 -13.852566663587867 -26.355764506677133 0 -6 0
219 0 5 0 5.5689285745543575 -13.768425502833244 -24.338669563945725 0 -6 0
218 0 5 0 5.484861137905299 -11.71981884984719 -26.38144104052186 0 -6 0
214 0 5 0 1.3997200902393863 -11.93096858021745 -26.312652126762504 0 -6 0
470 0 5 0 1.3789402810296973 -11.805462085948156 -22.423497017265028 0 -6 0
220 0 5 0 3.485128016324941 -11.812677192386815 -24.37491172510583 0 -6 0
474 0 5 0 5.489220920556149 -11.810692784699915 -22.343733044344773 0 -6 0
249 0 5 0 3.400519275784602 -9.937473648671197 -26.38426107950481 0 -6 0
247 0 5 0 1.366284453554297 -9.783974340720981 -24.314631478914876 0 -6 0
505 0 5 0 3.430883879862015 -9.850725817252119 -22.3323252599292 0 -6 0
251 0 5 0 5.462764439406917 -9.784445544839485 -24.370891426495223 0 -6 0
182 0 5 0 1.4054887764099775 -15.775797061726767 -26.29736487418377 0 -6 0
188 0 5 0 3.513561677924008 -15.845259384362318 -24.28874496300035 0 -6 0
442 0 5 0 5.478482030236044 -15.777850437381835 -22.39698845791649 0 -6 0
186 0 5 0 5.55452905717909 -15.786454381079277 -26.34611193036656 0 -6 0
477 0 5 0 7.536548898224008 -13.824842970553924 -22.38885947910703 0 -6 0
224 0 5 0 7.548401317225257 -11.774668287266362 -24.447421336614017 0 -6 0
509 0 5 0 7.526701535150421 -9.860963403130524 -22.39901505813654 0 -6 0
253 0 5 0 7.650450700463598 -9.748404065358116 -26.273694840575267 0 -6 0
192 0 5 0 7.562616538673243 -15.810943268392261 -24.38558571039345 0 -6 0
221 0 5 0 7.496695015457389 -13.726040703045133 -26.409397587511755 0 -6 0
476 0 5 0 3.4421779981792007 -11.840674394783063 -20.362918375032734 0 -6 0
503 0 5 0 1.4350654891278845 -9.845648144499327 -20.375001714694626 0 -6 0
475 0 5 0 5.506339627699818 -13.765687696238237 -20.367144984611677 0 -6 0
480 0 5 0 7.5729848224718275 -11.810743138072533 -20.39200862494498 0 -6 0
448 0 5 0 7.404094140072823 -15.770986736353574 -20.434548657784074 0 -6 0
444 0 5 0 3.4580366847389827 -15.824975423594319 -20.3932164268044 0 -6 0
507 0 5 0 5.440904562958067 -9.832597738498297 -20.356893694355257 0 -6 0
424 0 5 0 15.665885457178053 -15.826408490172756 -20.353897177476956 -1 -6 0
456 0 5 0 15.606588051302051 -11.795221457591383 -20.44624189933236 -1 -6 0
197 0 5 0 15.623014010927617 -13.940018903456675 -26.29912181874684 -1 -6 0
453 0 5 0 15.617061584706711 -13.868736550816426 -22.32009815767974 -1 -6 0
168 0 5 0 15.606380316819296 -15.892748860917143 -24.218487548440585 -1 -6 0
200 0 5 0 15.637527477329835 -11.920218287575423 -24.41635978273867 -1 -6 0
229 0 5 0 15.628702938950186 -9.8446094647497 -26.368521126524207 -1 -6 0
485 0 5 0 15.672881188094442 -9.864352406341286 -22.414838898315445 -1 -6 0
195 0 5 0 13.67664761127592 -13.892899323051589 -24.331219592304862 -1 -6 0
223 0 5 0 9.555359967863378 -13.816932720145221 -24.35173856482457 0 -6 0
449 0 5 0 11.613550842623146 -13.866991521637829 -22.346422456113686 -1 -6 0
193 0 5 0 11.577978150522796 -13.865941585751772 -26.279851178065154 -1 -6 0
450 0 5 0 13.605152381025732 -11.819250847171348 -22.405106734537863 -1 -6 0
194 0 5 0 13.662778826708875 -11.84699027647879 -26.456167131381886 -1 -6 0
478 0 5 0 9.607892397573346 -11.760916312135786 -22.317176385999026 0 -6 0
222 0 5 0 9.621119799470941 -11.825878729708007 -26.399345925902875 0 -6 0
196 0 5 0 11.653711922109267 -11.872104309930021 -24.387805602036654 -1 -6 0
227 0 5 0 13.692969476759767 -9.872418655013453 -24.3292373691099 -1 -6 0
481 0 5 0 11.606092267790308 -9.806030025642505 -22.34469880236936 -1 -6 0
225 0 5 0 11.541648560170533 -9.78558084443882 -26.25482406822906 -1 -6 0
255 0 5 0 9.678977831943 -9.82793442961769 -24.294929421525367 0 -6 0
418 0 5 0 13.62345327558578 -15.935418785084108 -22.309524006335824 -1 -6 0
164 0 5 0 11.664465220488708 -15.841650067468159 -24.273014984943043 -1 -6 0
162 0 5 0 13.58361969454675 -15.909597122827375 -26.255912403078018 -1 -6 0
190 0 5 0 9.522605411105156 -15.832716060432737 -26.32797290935748 0 -6 0
446 0 5 0 9.54657692006002 -15.86365687059388 -22.330000982404062 0 -6 0
483 0 5 0 13.618446891868752 -9.812076200748978 -20.382544525070955 -1 -6 0
511 0 5 0 9.588964694376196 -9.818148685973485 -20.31653230550624 0 -6 0
420 0 5 0 11.570067801809895 -15.862077131100476 -20.341807836518967 -1 -6 0
451 0 5 0 13.63410072817596 -13.80865601601858 -20.377589947397542 -1 -6 0
452 0 5 0 11.543980564422656 -11.86858893400955 -20.43068412893022 -1 -6 0
479 0 5 0 9.522492626018197 -13.830212004073694 -20.385825567435322 0 -6 0
263 0 5 0 -14.61064519575368 -5.75967525180021 -20.465042428047944 0 -7 0
496 0 5 0 -8.545773555225852 -7.757487945713945 -20.45306951780726 0 -6 0
299 0 5 0 -10.628958122782674 -1.6592565737052802 -20.44767054702914 0 -7 0
268 0 5 0 -12.5556635648205 -3.6724654396387093 -20.427058200336326 0 -7 0
230 0 5 0 -14.613431585683164 -7.657055781525024 -26.42813560494021 0 -6 0
236 0 5 0 -12.544111562857246 -7.761918627003888 -24.33955200149383 0 -6 0
234 0 5 0 -10.654204952946463 -7.763960740002425 -26.48348637670375 0 -6 0
490 0 5 0 -10.62677048942155 -7.747056886225748 -22.301162938147225 0 -6 0
486 0 5 0 -14.623635224385723 -7.7834458980697265 -22.43535113243325 0 -6 0
265 0 5 0 -12.51241294970316 -5.617533623351723 -22.451535457851595 0 -7 0
9 0 5 0 -12.64964991934969 -5.691917286278027 -26.380158679289835 0 -7 0
7 0 5 0 -14.602407094172074 -5.731746028429865 -24.367137563123098 0 -7 0
11 0 5 0 -10.564531234236211 -5.683081282510734 -24.410631227388713 0 -7 0
12 0 5 0 -12.532064381441366 -3.683110390348212 -24.39869036120391 0 -7 0
262 0 5 0 -14.653757769070754 -3.7395179933745304 -22.419017858329582 0 -7 0
6 0 5 0 -14.638848271638022 -3.6413991361040394 -26.294632900534655 0 -7 0
266 0 5 0 -10.575202090224385 -3.6707505700918293 -22.328332905135248 0 -7 0
10 0 5 0 -10.579532125655941 -3.712271798795113 -26.435146777192273 0 -7 0
297 0 5 0 -12.643117516062947 -1.6479291727673444 -22.462416645328094 0 -7 0
39 0 5 0 -14.63045015479862 -1.7351243188264924 -24.334983075693 0 -7 0
41 0 5 0 -12.583977095363652 -1.6974653132337532 -26.390561465728993 0 -7 0
43 0 5 0 -10.664942338843998 -1.6513468044093675 -24.487608472824924 0 -7 0
240 0 5 0 -8.624363085244207 -7.713648303488137 -24.404005396272876 0 -6 0
13 0 5 0 -8.580795781671341 -5.698421706185258 -26.415952319621468 0 -7 0
269 0 5 0 -8.595305782624186 -5.731842479032426 -22.41459607364817 0 -7 0
16 0 5 0 -8.605774304225191 -3.631629710605727 -24.448907653123587 0 -7 0
301 0 5 0 -8.583971804445651 -1.6254679499798483 -22.439348622314313 0 -7 0
45 0 5 0 -8.610870158473116 -1.6336968093228978 -26.40405995604039 0 -7 0
272 0 5 0 -8.654831673198915 -3.637741138771779 -20.441879856130072 0 -7 0
267 0 5 0 -10.567704270378885 -5.690745085691024 -20.315613994046025 0 -7 0
492 0 5 0 -12.690131823882444 -7.7594788952506715 -20.331950540838957 0 -6 0
295 0 5 0 -14.611703199139153 -1.7164510728370066 -20.42742643875462 0 -7 0
303 0 5 0 -6.609086716752663 -1.6867988667196117 -20.334798786551303 0 -7 0
280 0 5 0 -0.5308310735531266 -3.7470222103772635 -20.456971765856284 0 -7 0
307 0 5 0 -2.583995560318253 -1.6353038650607878 -20.352387527997053 0 -7 0
271 0 5 0 -6.550696141525979 -5.670492213979061 -20.458731995981083 0 -7 0
238 0 5 0 -6.64545452112101 -7.827202273421149 -26.421481109223066 0 -6 0
242 0 5 0 -2.577295915560488 -7.697054776958483 -26.47058616180801 0 -6 0
244 0 5 0 -4.661517250480681 -7.738399300232374 -24.373531096258667 0 -6 0
498 0 5 0 -2.650497176327189 -7.778906979205887 -22.523526301349534 0 -6 0
494 0 5 0 -6.601600822581486 -7.7234068130682765 -22.377534630636948 0 -6 0
15 0 5 0 -6.645814966681084 -5.644344682734059 -24.35329519340577 0 -7 0
17 0 5 0 -4.611556147228188 -5.682766899413381 -26.276451405435157 0 -7 0
273 0 5 0 -4.607929531684791 -5.777689040310819 -22.418173334342548 0 -7 0
19 0 5 0 -2.527398142652322 -5.667632031806193 -24.355104832413566 0 -7 0
14 0 5 0 -6.604786050437595 -3.6750076993768066 -26.400798068327354 0 -7 0
270 0 5 0 -6.6601233250466345 -3.6338265910685297 -22.338116477334285 0 -7 0
20 0 5 0 -4.595942279511268 -3.704144131001301 -24.327703649356017 0 -7 0
18 0 5 0 -2.490734138392094 -3.8063118975697705 -26.342031900360613 0 -7 0
274 0 5 0 -2.5639295905482413 -3.7207674245068203 -22.29937444883023 0 -7 0
305 0 5 0 -4.56934454952551 -1.7337890544255499 -22.30185469109817 0 -7 0
49 0 5 0 -4.483486054885711 -1.7858933427801011 -26.35262794570473 0 -7 0
47 0 5 0 -6.5365094290395325 -1.7174249510605266 -24.394487831175518 0 -7 0
51 0 5 0 -2.5947291916582818 -1.7161634476621292 -24.34990559078671 0 -7 0
248 0 5 0 -0.5560050155475541 -7.859666297652751 -24.376614872820536 0 -6 0
277 0 5 0 -0.5837456670056617 -5.754826281439651 -22.36252702690554 0 -7 0
21 0 5 0 -0.4603095582196383 -5.823134206006403 -26.41147057592718 0 -7 0
24 0 5 0 -0.5381074002543046 -3.7390566495061552 -24.348373455119187 0 -7 0
309 0 5 0 -0.5581740479066443 -1.7228617686762284 -22.425509308099244 0 -7 0
53 0 5 0 -0.6269604317929117 -1.7867382442086401 -26.36502771382671 0 -7 0
504 0 5 0 -0.6939808884850973 -7.743347342572301 -20.426056767255673 0 -6 0
500 0 5 0 -4.639029976997723 -7.742764947734137 -20.43577496202916 0 -6 0
275 0 5 0 -2.569615470636771 -5.777044734749993 -20.422982335919432 0 -7 0
276 0 5 0 -4.562891212536651 -3.7517476868108193 -20.31994317770943 0 -7 0
279 0 5 0 1.4406809785902397 -5.711014381613367 -20.47634696105359 0 -7 0
508 0 5 0 3.4504489967784586 -7.7148806771486145 -20.398355741319538 0 -6 0
311 0 5 0 1.4085581835860566 -1.7135986956806903 -20.37872109381418 0 -7 0
315 0 5 0 5.398009165309901 -1.7124301142874478 -20.40015660322767 0 -7 0
252 0 5 0 3.4171042576246613 -7.845301541554554 -24.318149743274635 0 -6 0
502 0 5 0 1.4278937112056787 -7.844030473987185 -22.296776884674205 0 -6 0
506 0 5 0 5.526750637724558 -7.858057899908649 -22.38844790839126 0 -6 0
246 0 5 0 1.3990790391904229 -7.941502261120129 -26.342111470495738 0 -6 0
23 0 5 0 1.3894240835252851 -5.862645200394315 -24.29580141838791 0 -7 0
25 0 5 0 3.4149348628107252 -5.773882707563357 -26.318880328688948 0 -7 0
281 0 5 0 3.4931495416139486 -5.769134224428227 -22.352980722677838 0 -7 0
250 0 5 0 5.388205229932188 -7.821613987030628 -26.377483250323078 0 -6 0
27 0 5 0 5.532406696507563 -5.831159796980948 -24.254991452454664 0 -7 0
22 0 5 0 1.4970386346972262 -3.714630827001534 -26.335529168159486 0 -7 0
278 0 5 0 1.4074195406536556 -3.8594147737827864 -22.443863203703852 0 -7 0
28 0 5 0 3.4705923940303585 -3.782894862115754 -24.39992822234993 0 -7 0
282 0 5 0 5.44463434926844 -3.817516768705311 -22.351401985201175 0 -7 0
26 0 5 0 5.444491856176171 -3.7859534464873956 -26.443293550896037 0 -7 0
55 0 5 0 1.525744820862946 -1.6927723522024543 -24.392575512731305 0 -7 0
313 0 5 0 3.4163349762982724 -1.7483163169543705 -22.431758806526528 0 -7 0
57 0 5 0 3.4718239924249255 -1.684335178929404 -26.50635979435575 0 -7 0
59 0 5 0 5.421759385092002 -1.7100838788064698 -24.26915985390206 0 -7 0
256 0 5 0 7.55477873595588 -7.829330979302207 -24.291569077701702 0 -6 0
29 0 5 0 7.548142380285521 -5.891251045697917 -26.267078634903598 0 -7 0
285 0 5 0 7.538955807958505 -5.724179846051627 -22.319241884958636 0 -7 0
317 0 5 0 7.451937723153203 -1.7005059997330612 -22.319214445136677 0 -7 0
32 0 5 0 7.425188266026275 -3.6994571384829023 -24.3567903002382 0 -7 0
61 0 5 0 7.429454536679133 -1.8468854167298048 -26.500173908081475 0 -7 0
283 0 5 0 5.49974989392782 -5.846781380990871 -20.36396793369193 0 -7 0
284 0 5 0 3.3893245854221554 -3.6721210983153965 -20.38111074953539 0 -7 0
288 0 5 0 7.483523348071278 -3.711582836149039 -20.364358127012554 0 -7 0
512 0 5 0 7.574248612085862 -7.829598626560194 -20.42268430137645 0 -6 0
287 0 5 0 9.572206431908931 -5.839297991176919 -20.380680580548415 0 -7 0
291 0 5 0 13.577983856503716 -1.6885922931085495 -20.35784193474465 -1 -7 0
232 0 5 0 15.639849570822664 -7.760418863825002 -24.419663860600302 -1 -6 0
261 0 5 0 15.626225191345055 -5.749771200902257 -22.428302982429592 -1 -7 0
8 0 5 0 15.653246656207632 -3.6512778911249226 -24.344028925621284 -1 -7 0
37 0 5 0 15.555712542400524 -1.753020314853974 -26.329634821451833 -1 -7 0
5 0 5 0 15.730103468237779 -5.618190725376893 -26.309261590344022 -1 -7 0
293 0 5 0 15.599224466429682 -1.6230957074654724 -22.318367663076202 -1 -7 0
226 0 5 0 13.544838821862262 -7.720588470077008 -26.319257919145848 -1 -6 0
228 0 5 0 11.61862874633698 -7.845804134623356 -24.255781174563065 -1 -6 0
482 0 5 0 13.673484840831057 -7.7948777504026845 -22.28801096532803 -1 -6 0
254 0 5 0 9.604919521988835 -7.8462919317405575 -26.222901330857237 0 -6 0
3 0 5 0 13.661617548472833 -5.724689935040693 -24.382386310557717 -1 -7 0
510 0 5 0 9.606275125863208 -7.824373236550533 -22.318285834613416 0 -6 0
257 0 5 0 11.646627960885308 -5.793765450463946 -22.472467782583333 -1 -7 0
1 0 5 0 11.548890437874492 -5.868412696205501 -26.19622125217909 -1 -7 0
31 0 5 0 9.534914793633174 -5.737261071940294 -24.278271218602118 0 -7 0
2 0 5 0 13.541257722007492 -3.7367691839096193 -26.389968019950125 -1 -7 0
258 0 5 0 13.594102878450911 -3.785689106138034 -22.40634570832565 -1 -7 0
30 0 5 0 9.492784543559848 -3.8695288129979066 -26.313290517388054 0 -7 0
4 0 5 0 11.586194949229329 -3.671336277886448 -24.28854407199316 -1 -7 0
286 0 5 0 9.542814653708204 -3.715093341251143 -22.325683940799976 0 -7 0
35 0 5 0 13.507724204880342 -1.7415453888184105 -24.399980792343445 -1 -7 0
63 0 5 0 9.519162153660282 -1.7243319533687944 -24.355104596084907 0 -7 0
289 0 5 0 11.560756381765982 -1.7198098938751867 -22.340747428861473 -1 -7 0
33 0 5 0 11.451878111876029 -1.741931563176892 -26.30201007185253 -1 -7 0
488 0 5 0 15.749704119821265 -7.795400068546557 -20.428010933637108 -1 -6 0
319 0 5 0 9.4891947633844 -1.7009670333040812 -20.33997294302565 0 -7 0
264 0 5 0 15.646385924977679 -3.6858099251992225 -20.45397358723186 -1 -7 0
259 0 5 0 13.670585177657268 -5.747133840749856 -20.37501954594265 -1 -7 0
484 0 5 0 11.6081414070934 -7.763796293422428 -20.39461007571638 -1 -6 0
260 0 5 0 11.616062702875267 -3.760395932541508 -20.341387384442008 -1 -7 0
331 0 5 0 -10.632730398248244 2.285426882482014 -20.359426989190908 0 -7 0
304 0 5 0 -8.66532179605667 0.306360168833345 -20.436268845186664 0 -7 0
44 0 5 0 -12.696844295653907 0.3594419711541029 -24.36225958813299 0 -7 0
38 0 5 0 -14.655682588857147 0.2360823730400227 -26.34972510333426 0 -7 0
298 0 5 0 -10.639581159002226 0.34144251777974227 -22.456960779203115 0 -7 0
73 0 5 0 -12.697664379833798 2.3315953566297694 -26.362565617475017 0 -7 0
329 0 5 0 -12.737868205813013 2.381251234997621 -22.370405446016022 0 -7 0
294 0 5 0 -14.644999806738653 0.3213905684059006 -22.384298327718827 0 -7 0
71 0 5 0 -14.754080477015167 2.343548664459392 -24.304300174449104 0 -7 0
75 0 5 0 -10.651643581474548 2.3083907119088805 -24.346805484527586 0 -7 0
42 0 5 0 -10.600469377788544 0.36085099515559454 -26.502794198862087 0 -7 0
76 0 5 0 -12.708206141371063 4.376465761593549 -24.34231806453278 0 -7 0
74 0 5 0 -10.537993853284755 4.36272317084436 -26.325599927037413 0 -7 0
70 0 5 0 -14.739126166902437 4.321745911399692 -26.34564023511232 0 -7 0
326 0 5 0 -14.764581337159186 4.354439290880906 -22.374866308872157 0 -7 0
330 0 5 0 -10.714689666325041 4.327951963253426 -22.325576300290063 0 -7 0
361 0 5 0 -12.72610710876735 6.267780750865798 -22.361975160701817 0 -7 0
107 0 5 0 -10.717147960027036 6.358242865548472 -24.323086933211847 0 -7 0
105 0 5 0 -12.576878909463856 6.3361201659974515 -26.369922789160103 0 -7 0
103 0 5 0 -14.687449835022866 6.299268337002111 -24.31472923786596 0 -7 0
48 0 5 0 -8.5265838520354 0.30164393981518073 -24.420159940011725 0 -7 0
77 0 5 0 -8.620398079488325 2.4057864367415345 -26.204153415113115 0 -7 0
80 0 5 0 -8.655578704807606 4.382529949214239 -24.294608155532092 0 -7 0
365 0 5 0 -8.634383980627769 6.375476915261886 -22.310855360505336 0 -7 0
109 0 5 0 -8.717309417449165 6.471448259966803 -26.322391327120137 0 -7 0
333 0 5 0 -8.651582633652595 2.346022171875583 -22.410205350298746 0 -7 0
327 0 5 0 -14.658939723903524 2.3405924598221888 -20.416523431394577 0 -7 0
300 0 5 0 -12.65427640405151 0.37474182237744125 -20.475226826651323 0 -7 0
359 0 5 0 -14.760043363771059 6.350291140441096 -20.456694341710925 0 -7 0
336 0 5 0 -8.635805330041437 4.276312896768294 -20.33910693801373 0 -7 0
363 0 5 0 -10.600101142109533 6.34982727710766 -20.33907608529642 0 -7 0
332 0 5 0 -12.725037133985758 4.344117877011026 -20.317734974963816 0 -7 0
371 0 5 0 -2.643902560623887 6.22302900530142 -20.38119764416221 0 -7 0
339 0 5 0 -2.5826428270490145 2.2520084424850504 -20.405067257363775 0 -7 0
344 0 5 0 -0.6631094290789963 4.236602128874396 -20.405866953778382 0 -7 0
50 0 5 0 -2.7154449681345643 0.4311796434315549 -26.45692077507962 0 -7 0
52 0 5 0 -4.503699853480137 0.4074383703659553 -24.30879509804759 0 -7 0
46 0 5 0 -6.494459364646389 0.33138374722508007 -26.431857970707362 0 -7 0
302 0 5 0 -6.532817042222206 0.26983923213466365 -22.36376972324334 0 -7 0
79 0 5 0 -6.603192258228363 2.34717645202838 -24.278768646624297 0 -7 0
337 0 5 0 -4.660411521008174 2.3718133957339385 -22.356602887061875 0 -7 0
81 0 5 0 -4.702657002751312 2.4877153927317535 -26.274825514613283 0 -7 0
306 0 5 0 -2.543911614867554 0.30967014080843697 -22.362944219604618 0 -7 0
83 0 5 0 -2.613836939477936 2.4292384993046507 -24.340334407593783 0 -7 0
338 0 5 0 -2.594756362991931 4.3194193432267625 -22.355049417354078 0 -7 0
334 0 5 0 -6.6364921391150045 4.483484844264773 -22.382634105886073 0 -7 0
82 0 5 0 -2.603949126924157 4.393835335436435 -26.40160172548026 0 -7 0
78 0 5 0 -6.673370697618426 4.432378851590142 -26.252252866961072 0 -7 0
84 0 5 0 -4.616363216833499 4.3926278966169345 -24.33110221514285 0 -7 0
111 0 5 0 -6.686071746462222 6.537452771372761 -24.329351735359474 0 -7 0
369 0 5 0 -4.674680274283796 6.408654663500318 -22.317787526768846 0 -7 0
113 0 5 0 -4.707969173797472 6.447640500539999 -26.28509802970605 0 -7 0
115 0 5 0 -2.6620559799402708 6.357544305580818 -24.307184113378824 0 -7 0
341 0 5 0 -0.5912096989394174 2.3271171977850984 -22.445688436859637 0 -7 0
56 0 5 0 -0.5884316074099452 0.3717116241602684 -24.392100050892967 0 -7 0
85 0 5 0 -0.6317181560789003 2.3196831358857413 -26.47684679991194 0 -7 0
88 0 5 0 -0.5571672851230117 4.362586034132602 -24.4202245308425 0 -7 0
117 0 5 0 -0.7035066483420325 6.4424445912697275 -26.334113787241 0 -7 0
373 0 5 0 -0.5357308527928267 6.257366101151806 -22.36526204654977 0 -7 0
312 0 5 0 -0.5370221347097983 0.2630730075382482 -20.40401280845196 0 -7 0
335 0 5 0 -6.669585671403339 2.3104376625898344 -20.433787968716604 0 -7 0
340 0 5 0 -4.640947951477742 4.262549395963959 -20.389672734154356 0 -7 0
367 0 5 0 -6.579582479869714 6.368869572292493 -20.26983800579422 0 -7 0
308 0 5 0 -4.623541295952153 0.35084999067452527 -20.310092754261905 0 -7 0
352 0 5 0 7.546631198738026 4.249272323204308 -20.40349446023083 0 -7 0
316 0 5 0 3.418268355018052 0.25778963300867125 -20.335314209895845 0 -7 0
379 0 5 0 5.408797725631185 6.399512346163792 -20.360497593802524 0 -7 0
348 0 5 0 3.4140724857254527 4.354570707487007 -20.3262979262706 0 -7 0
58 0 5 0 5.532636196743022 0.28771475053713425 -26.394339842688385 0 -7 0
54 0 5 0 1.3509634190908553 0.3009123612612038 -26.41932200844526 0 -7 0
60 0 5 0 3.3908243170184633 0.25820544831213 -24.386458403175713 0 -7 0
310 0 5 0 1.491895038107251 0.3157770218004018 -22.358323725601988 0 -7 0
87 0 5 0 1.405601995910219 2.2870777328992125 -24.432160242565622 0 -7 0
89 0 5 0 3.4699367361418436 2.3917146423408857 -26.43804013381681 0 -7 0
345 0 5 0 3.4953999779765152 2.3286999377770377 -22.33767103118152 0 -7 0
91 0 5 0 5.434461495916685 2.3016361647422285 -24.340862717337735 0 -7 0
314 0 5 0 5.413370659942031 0.31231013259234275 -22.328736051604196 0 -7 0
342 0 5 0 1.4234490838761957 4.248105703949065 -22.32772562180474 0 -7 0
90 0 5 0 5.523592038000573 4.321103521862394 -26.406936024939252 0 -7 0
86 0 5 0 1.4599730768095154 4.349046715974167 -26.424047583321503 0 -7 0
92 0 5 0 3.376700979954748 4.301785717894372 -24.37015366546699 0 -7 0
346 0 5 0 5.426313622861542 4.27094097473334 -22.367121165938396 0 -7 0
121 0 5 0 3.4824170691276244 6.3488590521070565 -26.355256723596884 0 -7 0
119 0 5 0 1.463569165553905 6.272615792306776 -24.399384356412536 0 -7 0
377 0 5 0 3.455570826860701 6.299534591280898 -22.459235736040416 0 -7 0
123 0 5 0 5.54663890073129 6.349522427894378 -24.382553786134196 0 -7 0
64 0 5 0 7.531407676119174 0.26604302573556704 -24.37274212136706 0 -7 0
93 0 5 0 7.59193405684122 2.4235124462727726 -26.380749760877208 0 -7 0
349 0 5 0 7.405168427296163 2.2363244942971257 -22.387636414245993 0 -7 0
96 0 5 0 7.54178666605437 4.3600723782896145 -24.27393320184575 0 -7 0
381 0 5 0 7.496667080554695 6.393763304272753 -22.393995414037374 0 -7 0
125 0 5 0 7.539418481851121 6.337281209652566 -26.252443325047228 0 -7 0
375 0 5 0 1.4270810935298055 6.346505274930446 -20.42461873102848 0 -7 0
343 0 5 0 1.3627562670852096 2.282344125461751 -20.391369897788667 0 -7 0
347 0 5 0 5.485009735509768 2.343268164989764 -20.38780730073048 0 -7 0
320 0 5 0 7.492245229634775 0.29168917114826254 -20.346939965128914 0 -7 0
355 0 5 0 13.587119715299046 6.383955216578999 -20.465596162434032 -1 -7 0
324 0 5 0 11.565830461279926 4.349938894401738 -20.37050998910676 -1 -7 0
328 0 5 0 15.53265933622707 4.356285108123547 -20.37725602193753 -1 -7 0
351 0 5 0 9.513793198955357 2.308734681873253 -20.32170196589084 0 -7 0
325 0 5 0 15.571795638072182 2.2675787569684713 -22.419779403578534 -1 -7 0
357 0 5 0 15.636677918997023 6.3524999052751125 -22.33855838457932 -1 -7 0
40 0 5 0 15.565904785229645 0.3228142087610679 -24.381081158620468 -1 -7 0
69 0 5 0 15.551054317184368 2.3923987305930416 -26.362694950876346 -1 -7 0
72 0 5 0 15.466024166815611 4.341741881578974 -24.29648179208066 -1 -7 0
101 0 5 0 15.648499329183826 6.36031690239103 -26.35799164799563 -1 -7 0
36 0 5 0 11.429201083588381 0.30138764106423843 -24.288931781120258 -1 -7 0
62 0 5 0 9.454711417081597 0.22987144766623763 -26.411406675392353 0 -7 0
34 0 5 0 13.538509805800704 0.2885193116645666 -26.419609037258383 -1 -7 0
318 0 5 0 9.511263103294608 0.3156629856958025 -22.3279656833178 0 -7 0
290 0 5 0 13.515136554394989 0.295974353173785 -22.429499125866336 -1 -7 0
67 0 5 0 13.47220773227881 2.3141650122315287 -24.410523945915887 -1 -7 0
95 0 5 0 9.426527350604918 2.270541387633922 -24.3014364903101 0 -7 0
321 0 5 0 11.46284070306552 2.391453670992337 -22.361345888418594 -1 -7 0
65 0 5 0 11.409961674655772 2.243199510505106 -26.333977427110757 -1 -7 0
350 0 5 0 9.529830543192505 4.338352458792358 -22.284697948491257 0 -7 0
94 0 5 0 9.517610828353941 4.431900131178875 -26.347832678653667 0 -7 0
66 0 5 0 13.452196803378333 4.4256433306934175 -26.480047221645652 -1 -7 0
322 0 5 0 13.492028484940834 4.259116837614071 -22.36114175681466 -1 -7 0
68 0 5 0 11.53326157696107 4.399996755365149 -24.36907952312169 -1 -7 0
97 0 5 0 11.576862155863024 6.566500816074256 -26.377621645728457 -1 -7 0
353 0 5 0 11.526878013535281 6.371388404579459 -22.335511029208433 -1 -7 0
127 0 5 0 9.519161613779634 6.386802677710215 -24.25377277270051 0 -7 0
99 0 5 0 13.59848533986768 6.357286145442888 -24.33581781893293 -1 -7 0
296 0 5 0 15.635760785427168 0.4001085502367785 -20.410670353911062 -1 -7 0
292 0 5 0 11.47441947878912 0.3102913524987939 -20.40585589420451 -1 -7 0
323 0 5 0 13.598896969697607 2.3476871938914727 -20.380439194782884 -1 -7 0
383 0 5 0 9.488380362802445 6.404540932430011 -20.289806748479403 0 -7 0
423 0 5 0 -14.667747765100394 14.397622162544012 -20.3857758992247 0 -7 0
391 0 5 0 -14.661446958751412 10.373003123541297 -20.371437873942316 0 -7 0
108 0 5 0 -12.624717252398693 8.377689410983171 -24.340014597541657 0 -7 0
106 0 5 0 -10.63535700949621 8.412433421608343 -26.285895912881216 0 -7 0
362 0 5 0 -10.623293572497225 8.31652882737909 -22.285957622322748 0 -7 0
358 0 5 0 -14.637484768090138 8.320277670998525 -22.367245371908943 0 -7 0
102 0 5 0 -14.572899197509477 8.401556786340757 -26.3352881785286 0 -7 0
138 0 5 0 -10.722708367436582 12.47104546953463 -26.452828661267247 0 -7 0
394 0 5 0 -10.721661433037662 12.321887276479677 -22.379105803293452 0 -7 0
137 0 5 0 -12.732394668400726 10.479405987526915 -26.476337421113577 0 -7 0
139 0 5 0 -10.668753095456628 10.41685314355099 -24.2857628952481 0 -7 0