LAMMPS data file via write_data, version 15 Sep 2022, timestep = 100000

633 atoms
7 atom types
443 bonds
6 bond types
307 angles
9 angle types
74 dihedrals
14 dihedral types

-8.792720455137509 8.792720455137509 xlo xhi
-9.526520762638228 9.526520762638228 ylo yhi
-9.526520762638228 9.526520762638228 zlo zhi

Masses

1 15.9994
2 1.008
3 12.011
4 15.9994
5 1.008
6 15.9994
7 1.008

Pair Coeffs # lj/cut/tip4p/long

1 0.185199 3.1589
2 0 0
3 0.056 3.58141
4 0.1 2.93997
5 0.035 2.38761
6 0.192 3.14487
7 0.046 0.40001

Bond Coeffs # harmonic

1 0 0.9572
2 222.35 1.53
3 308.79 1.1111
4 359.76 1.1415
5 427.715 1.142
6 544.635 0.96

Angle Coeffs # charmm

1 0 104.52 0 0
2 50 109 0 0
3 26.5 110.1 22.53 2.179
4 45 111.5 0 0
5 13.0258 109.4 0 0
6 35.5 109 5.4 1.802
7 55 108.89 0 0
8 75.7 110.1 0 0
9 95 109.7 0 0

Dihedral Coeffs # charmm

1 0.57 1 0 0
2 0.29 2 0 0
3 0.43 3 0 0
4 0.59 1 180 0
5 1.16 2 0 0
6 0.12 1 0 0
7 0.42 2 0 0
8 0.29 3 0 0
9 2.87 1 180 0
10 0.03 2 0 0
11 0.23 3 0 0
12 1.36 1 180 0
13 0.16 2 0 0
14 1.01 3 0 0

Atoms # full

1260 399 2 0.527 -7.078050385935675 -8.258425081245546 -0.5502331143549686 1 1 0
622 187 1 -1.054 -4.729685902137428 -2.031679442546128 -8.061312507583011 1 1 0
125 21 2 0.527 -7.545822194928595 -7.684356169120204 -4.167655168414441 0 0 0
1193 377 2 0.527 8.382768710462514 -0.4358105720656926 -2.102106407056662 0 1 0
770 236 2 0.527 -7.8837144164360735 -8.610017440220203 -9.205902859903834 1 0 0
126 21 2 0.527 -8.024554128400494 -9.068910459628581 -3.7859221734177897 0 0 0
266 68 2 0.527 -7.610662015518338 -1.6178347628379752 -7.067063410402787 0 0 0
46 1 5 0.09 -2.460784216687906 -1.29915376501753 -4.119276707281701 0 0 0
1343 427 2 0.527 -4.628538094270786 -4.559389427301964 -6.865524589200361 0 1 0
1342 427 1 -1.054 -4.52427434193023 -4.680828519826692 -7.809247808180683 0 1 0
1344 427 2 0.527 -4.425990447155606 -3.794040384888188 -8.155916171207215 0 1 0
695 211 2 0.527 -5.193728006493606 -8.068737960845496 -7.996494322544515 1 0 0
45 1 3 -0.01 -1.5083130017335324 -1.3566931306816639 -3.540443881917682 0 0 0
793 244 1 -1.054 4.410435292177537 -6.319010540378861 -0.35140458379631134 -2 0 0
812 250 2 0.527 -1.143331939052616 -5.937127299570429 -7.734583292867897 1 0 0
811 250 1 -1.054 -0.5916045789058249 -6.681978843973287 -7.973381407190986 1 0 0
813 250 2 0.527 -0.9356174580605074 -6.9746350641055015 -8.817324032589948 1 0 0
47 1 5 0.09 -0.8133574831090565 -2.081039105300707 -4.1338121566800785 0 0 0
1099 346 1 -1.054 0.275336000659097 -9.303844821088115 -3.0945912269751172 0 0 0
292 77 1 -1.054 -4.63244839566214 -3.8275324634278745 -5.311568646628346 1 0 0
294 77 2 0.527 -5.0231107782120565 -4.137316310251719 -4.49447103851039 1 0 0
48 1 3 -0.01 -1.9671566175638755 -2.060085094141438 -2.22963688898441 0 0 0
760 233 1 -1.054 -6.7037185309560385 -6.405389674325552 -5.44275480286472 0 0 1
762 233 2 0.527 -6.365786812582952 -5.7947875210920605 -4.787622104410712 0 0 1
1183 374 1 -1.054 -5.051583149475126 -0.8380512496604009 -5.310358552140629 1 1 0
52 1 3 -0.01 -1.135168881421525 -2.8995190692916704 -0.5509730067361406 0 0 0
769 236 1 -1.054 -7.805288299340518 -9.523705944648542 -8.931577300404193 1 0 0
1184 374 2 0.527 -5.942989337208292 -0.9882717404772379 -5.6250959617435825 1 1 0
761 233 2 0.527 -5.9564893986732335 -6.963189320020922 -5.658947439500579 0 0 1
733 224 1 -1.054 -1.819084493162367 -4.547600434969356 -6.680177223263705 0 1 1
293 77 2 0.527 -4.901493304423552 -2.9110363162248767 -5.3738695583905285 1 0 0
1507 482 1 -1.054 -4.262856987667949 -8.194866881299923 -5.257266599818495 1 1 0
1535 491 2 0.527 -7.82028768747895 -0.9134032286008065 -8.947032583810524 0 1 1
1509 482 2 0.527 -4.231890421444984 -8.320574334430736 -4.308862377543811 1 1 0
1508 482 2 0.527 -3.344690375366893 -8.179021345296853 -5.5273585596520824 1 1 0
694 211 1 -1.054 -5.169146578582633 -7.610221097569797 -8.836369241758735 1 0 0
51 1 4 -0.34 -1.0169709825767839 -2.486211909569056 -1.7015541021909426 0 0 0
735 224 2 0.527 -1.731698698749339 -4.809603678905992 -5.76368943276149 0 1 1
44 1 4 -0.34 -1.0053943385318147 -0.32163082968193746 -3.1840872937715305 0 0 0
951 296 2 0.527 -7.991358189234168 -6.1787977025904715 -9.26250766364245 0 1 0
1563 500 2 0.527 -7.965237978161738 -1.8675618803639171 -2.70097451357376 0 0 0
1562 500 2 0.527 -8.044498167378935 -3.1808541776706445 -1.9520576490044297 0 0 0
1561 500 1 -1.054 -7.5771769114452585 -2.7417331958475275 -2.6627018497060053 0 0 0
55 1 3 -0.01 -0.0027241190360739443 -3.7809901153774566 -0.16611524049768808 0 0 0
1412 450 2 0.527 -5.581450310919985 -5.1036346102751 -2.4172647100777693 0 0 0
265 68 1 -1.054 -7.438415072993548 -1.5674590680116127 -6.126837317910846 0 0 0
1411 450 1 -1.054 -6.0846806870668075 -4.887094796186697 -3.202185845086607 0 0 0
1558 499 1 -1.054 -4.0626228827973545 -8.030696605054466 -2.441560065715837 0 1 0
1448 462 2 0.527 -3.9175158850664022 -5.947140263908707 -1.7658761934404588 0 0 -1
932 290 2 0.527 -4.948728487388237 -0.37191266520229505 -1.5844423898241047 1 0 -1
1064 334 2 0.527 3.4594775394222985 -3.724192917655202 -9.009387872719651 0 1 0
1449 462 2 0.527 -4.294390214086953 -5.187682326579009 -0.5116495554637996 0 0 -1
66 1 7 0.42 -0.7078877536063767 -6.496995687971238 -0.9936115672659752 0 0 0
765 234 2 0.527 -8.620871907935111 -3.5374296758942787 -4.1873959201746676 0 0 1
1447 462 1 -1.054 -3.94748469426684 -5.065088248825563 -1.3953117956417458 0 0 -1
1560 499 2 0.527 -4.90416534721933 -8.300180567857355 -2.0735714799547367 0 1 0
785 241 2 0.527 -7.386972136087112 -4.455131375404901 -7.7060816426828715 -1 -1 1
624 187 2 0.527 -4.502849554061224 -1.446451635475599 -7.338619306709403 1 1 0
1413 450 2 0.527 -6.4453692175396196 -4.018543351752066 -3.0239897310115555 0 0 0
1158 365 2 0.527 -1.1349323283977792 -7.744968324729359 -6.445081667728884 0 2 0
734 224 2 0.527 -2.7167321269139135 -4.223210406983961 -6.75249977835589 0 1 1
794 244 2 0.527 4.049834718239415 -5.436298289119226 -0.43517800791873107 -2 0 0
50 1 5 0.09 -2.52548239174092 -2.9770377909384753 -2.610636933744612 0 0 0
766 235 1 -1.054 1.1500253265281675 -3.6540514999485154 -7.437592499034748 1 -1 0
124 21 1 -1.054 -8.056148777148586 -8.153598076527485 -3.507647356039273 0 0 0
65 1 6 -0.65 -0.11115810643560475 -7.002326596481229 -1.5742513126081334 0 0 0
629 189 2 0.527 8.10822258762246 -8.059955839188627 -6.782501749239849 0 1 0
786 241 2 0.527 -7.8754001312452635 -5.62248554431938 -6.875047825607752 -1 -1 1
62 1 3 0.05 0.8382953888324122 -6.853815436594774 -0.9353285832399393 0 0 0
1190 376 2 0.527 0.19215734063868695 -5.856087631808261 -4.424580068626707 1 1 0
1191 376 2 0.527 -0.39023228928791553 -5.148603749138765 -3.2195142574982842 1 1 0
64 1 5 0.09 1.794464987584803 -7.233784384820356 -1.444661554347042 0 0 0
768 235 2 0.527 0.398159834325039 -4.246124413317231 -7.418124189146541 1 -1 0
1261 400 1 -1.054 -5.342050922018076 -1.5718718351334928 -0.24322026327516255 0 1 0
59 1 3 -0.01 1.0662706720509656 -5.327372685558597 -0.7638747393149298 0 0 0
49 1 5 0.09 -2.746942936454201 -1.3065962996337206 -1.8480221826764724 0 0 0
267 68 2 0.527 -8.175642355302394 -2.0252654324624464 -5.722930853259048 0 0 0
623 187 2 0.527 -5.66277224292991 -2.2091292162695986 -7.942602424124452 1 1 0
784 241 1 -1.054 -7.913035752087181 -5.2531678682188145 -7.757328881366186 -1 -1 1
58 1 4 -0.34 -0.007665027910702336 -4.7841338571143535 -0.6802867318725961 0 0 0
1101 346 2 0.527 0.13861640231155903 -8.535611256168679 -2.540193554896492 0 0 0
200 46 2 0.527 1.457572942922889 -1.0859089875255385 -8.966323673039364 0 0 1
1156 365 1 -1.054 -1.352367108963822 -8.40388345300421 -5.785699543980439 0 2 0
1159 366 1 -1.054 3.0879044203669466 -1.007375529501532 -7.925806476821576 0 1 0
1065 334 2 0.527 1.9978386732724385 -3.400162338739677 -9.23412826852356 0 1 0
630 189 2 0.527 6.72045507036937 -7.9602207592493475 -7.379198270111489 0 1 0
696 211 2 0.527 -5.37624734938664 -6.701167915034781 -8.619658857557186 1 0 0
1452 463 2 0.527 6.438605357647939 -1.5682122335706943 -0.4071310312151777 0 0 1
1161 366 2 0.527 2.9544659693953275 -1.491088765022388 -7.110669973064602 0 1 0
1131 356 2 0.527 -3.4978089885682566 -5.189658114422774 -9.422505511862829 0 1 1
1450 463 1 -1.054 7.141142527421348 -1.7165766978231272 -1.0401086505272925 0 0 1
53 1 5 0.09 -2.0761021349796636 -3.5455995596212566 -0.4224498657987691 0 0 0
1192 377 1 -1.054 -8.618704847293175 -0.3337594514479463 -2.853637552277708 1 1 0
767 235 2 0.527 1.7355886711079052 -3.987309300328076 -6.757676209614034 1 -1 0
1157 365 2 0.527 -0.8038874695641791 -9.156147508096717 -6.008186184019917 0 2 0
1185 374 2 0.527 -5.135482569428715 -0.8077722777561434 -4.3573234331765045 1 1 0
1377 438 2 0.527 0.8549744367635164 -7.864701141545847 -4.28088399490168 0 1 1
1049 329 2 0.527 2.9347351029862043 -6.138583326039662 -5.211523121477939 -1 0 -1
1536 491 2 0.527 8.631478244455348 -1.8517933727935931 -9.302135908476147 -1 1 1
1262 400 2 0.527 -5.07128162349659 -2.4240177889577943 -0.5849262740008179 0 1 0
1136 358 2 0.527 3.75347619454414 -2.4872493341273616 -0.39407888368135957 -1 0 -1
1178 372 2 0.527 5.326874371988758 -2.5772327574317293 -3.4176104589714154 0 -1 -1
1415 451 2 0.527 5.28786691452944 -1.1502462922411176 -5.055725183242059 -1 0 1
1559 499 2 0.527 -3.4210106310210007 -8.597793337816583 -2.0138144978997357 0 1 0
1103 347 2 0.527 8.153678843081796 -6.979459668515 -4.4832317258227885 -1 1 0
778 239 1 -1.054 7.324935803191458 -0.14807260319637727 -5.061836154678651 -1 -1 0
60 1 5 0.09 1.6849536968457601 -4.981010697026675 -1.6856727217884275 0 0 0
211 50 1 -1.054 4.792800712721398 -8.016750801472247 -7.154391669343354 0 0 0
1534 491 1 -1.054 -8.167360757800164 -1.7857903718865007 -8.760719229833992 0 1 1
168 35 2 0.527 6.880421590549721 -3.6227487557589555 -9.285633649562332 0 0 1
1258 399 1 -1.054 -6.19237471818371 -8.502647960094981 -0.818867709820525 1 1 0
732 223 2 0.527 4.272910283471893 -3.839753796346578 -6.755011251812519 -1 0 1
966 301 2 0.527 7.577346074997603 -7.9712539138554 -0.8721825572214659 0 2 0
763 234 1 -1.054 8.404261793215213 -3.4245556332439575 -4.955215357929759 -1 0 1
1414 451 1 -1.054 4.5645891158485075 -1.2020971993698026 -4.430895751257024 -1 0 1
213 50 2 0.527 4.306055329168009 -7.339526839933208 -6.684627739613641 0 0 0
1050 329 2 0.527 4.262308525744711 -5.684217237206636 -4.643198392563439 -1 0 -1
1506 481 2 0.527 -0.7722970983275754 -0.9156994933819895 -8.438917806150846 1 1 0
1376 438 2 0.527 1.0041342525662866 -7.616760469289016 -5.766875898705596 0 1 1
1189 376 1 -1.054 -0.2893592701613823 -5.069582396565017 -4.168098513213534 1 1 0
353 97 2 0.527 2.050362137443475 -1.8416721976505235 -4.460379957272696 0 0 -1
1451 463 2 0.527 6.798233888775211 -2.391999268373489 -1.6253006766536569 0 0 1
764 234 2 0.527 8.12500938049094 -4.3118265674644825 -5.181047426519529 -1 0 1
212 50 2 0.527 4.656233052543749 -8.81166224306804 -6.638933715643503 0 0 0
965 301 2 0.527 8.36076040556777 -8.563491641447355 -2.024315709820822 0 2 0
354 97 2 0.527 1.298600997446723 -2.1125883305584434 -5.74620810675051 0 0 -1
1416 451 2 0.527 3.810431987423623 -1.4657620884729567 -4.958113852030533 -1 0 1
167 35 2 0.527 7.870141682908866 -4.365270267953806 -8.413274913321217 0 0 1
1135 358 1 -1.054 3.528631529570749 -3.252915822561266 -0.9226916675065091 -1 0 -1
113 17 2 0.527 0.6760495898362038 -1.699473824627166 -2.5850548144943106 0 0 -1
930 289 2 0.527 4.975292024412372 -6.556857724028639 -2.5641910750261063 0 1 -1
352 97 1 -1.054 2.1813546788802256 -1.9904981616353572 -5.396821960539406 0 0 -1
628 189 1 -1.054 7.59743294841488 -8.300994567825741 -7.5553055822503 0 1 0
1102 347 1 -1.054 7.774918871828344 -6.177238715080927 -4.842695321440114 -1 1 0
1160 366 2 0.527 3.6890613038389173 -1.5529411692584514 -8.432955270800111 0 1 0
1375 438 1 -1.054 1.4206774931543542 -7.437299433702297 -4.923954151461668 0 1 1
1137 358 2 0.527 2.8517845913944164 -2.939871834809174 -1.5227857422476134 -1 0 -1
166 35 1 -1.054 6.934442607088782 -4.2881961809136175 -8.59970846312047 0 0 1
1177 372 1 -1.054 5.986164585411853 -3.163635029197038 -3.0465308919940624 0 -1 -1
1179 372 2 0.527 6.695018739089436 -3.1654538342160405 -3.689767738138613 0 -1 -1
114 17 2 0.527 1.6074530348084846 -0.5060279473284979 -2.593333810775899 0 0 -1
1504 481 1 -1.054 -1.3977711073757266 -0.7683171304349656 -7.7294870540493115 1 1 0
964 301 1 -1.054 7.79038453878427 -8.803627152942056 -1.2940844454178482 0 2 0
928 289 1 -1.054 5.5459973709366555 -6.1436476926382895 -3.212098685610778 0 1 -1
730 223 1 -1.054 4.429451549234468 -3.5530881878509826 -7.6547609270854124 -1 0 1
112 17 1 -1.054 1.603425436443196 -1.4629190427763632 -2.569353273005939 0 0 -1
43 1 5 0.09 0.21268847819713177 -0.25383889510626045 -4.715879764698536 0 0 0
1104 347 2 0.527 6.901391610074068 -6.129265269770889 -4.4542632250945235 -1 1 0
731 223 2 0.527 5.288886991522734 -3.91237806126934 -7.875016068367995 -1 0 1
1194 377 2 0.527 8.391186440192637 -0.06639278467060272 -3.5702190882499796 0 1 0
929 289 2 0.527 5.604877229380042 -5.230177865947983 -2.93220962786158 0 1 -1
1048 329 1 -1.054 3.7769337760251993 -5.760625303343631 -5.464663351456928 -1 0 -1
57 1 5 0.09 0.9339114643232344 -3.1562853455836826 -0.07165672604888682 0 0 0
788 242 2 0.527 6.386237409610759 -6.2507742158171595 -0.2346083760677633 -1 0 0
1100 346 2 0.527 -0.5977749257215468 -9.523835647994087 -3.419417534055274 0 0 0
1259 399 2 0.527 -5.765905716918498 -8.78617046595054 -0.010183104839908808 1 1 0
459 132 2 0.527 5.81878983552126 -5.885537416627661 -9.483641521991025 -1 0 0
1155 364 2 0.527 -0.5083272128613174 -3.871586326087346 7.78601576749795 1 1 -1
1543 494 1 -1.054 0.6114487331033445 -4.192490839424 3.0457448874498994 0 0 0
1544 494 2 0.527 -0.2545997100342099 -3.8146630302621336 3.198836479053135 0 0 0
1489 476 1 -1.054 -1.9808765760261604 -3.0182817313511467 3.400349098449727 0 1 0
516 151 2 0.527 8.157513483812508 -3.4674862723953703 0.13234332694316286 0 0 0
1195 378 1 -1.054 -3.871409729189308 -2.4108429395564164 5.7240873512136705 1 0 -1
500 146 2 0.527 -6.7437297303321415 -0.4014636661138322 0.45770996493959615 0 0 0
683 207 2 0.527 -3.031089403730096 -2.676520419881893 9.504762887391752 0 0 -1
1153 364 1 -1.054 -0.6964034082039063 -4.79769732084614 7.9382576302796615 1 1 -1
457 132 1 -1.054 5.797490397243797 -6.451537249398491 8.797763842499137 -1 0 -1
1545 494 2 0.527 1.2231730606312325 -3.5160394315055257 3.336327363795503 0 0 0
797 245 2 0.527 -5.444380869362904 -8.998474510191082 4.3912129035254885 0 0 -1
538 159 1 -1.054 -5.885542458900546 -4.891255454664602 0.9801774471089733 0 1 0
1491 476 2 0.527 -2.6777666803531233 -3.589933637341013 3.0781854183243205 0 1 0
615 184 2 0.527 -2.8603007196346635 -5.779542011331935 1.7719507399965817 1 0 0
1490 476 2 0.527 -2.1789229560333006 -2.8984344341257415 4.329136509968219 0 1 0
1154 364 2 0.527 -1.6484246594299243 -4.864507574255602 7.864619852393286 1 1 -1
743 227 2 0.527 1.7606774472380877 -7.649100896358057 9.439187722118554 1 0 -1
540 159 2 0.527 -6.064658817498325 -5.8241889361238695 0.8627710990270536 0 1 0
689 209 2 0.527 -8.077726884308689 -0.9542533129512432 7.160821968975775 1 -1 0
759 232 2 0.527 -3.8109297248578633 -6.747888389112026 3.919803603087253 0 0 0
614 184 2 0.527 -4.226300970568285 -5.146232521443301 1.6142960316152077 1 0 0
613 184 1 -1.054 -3.370136008161891 -5.00814964174336 2.0194447576853065 1 0 0
757 232 1 -1.054 -4.700206970388783 -7.099786827978474 3.8800015380727846 0 0 0
539 159 2 0.527 -6.749846441914846 -4.479963901017877 0.9871556453557346 0 1 0
706 215 1 -1.054 -1.5415708808948354 -8.889038127329096 4.018539305216464 0 0 0
418 119 1 -1.054 -6.9972001026456745 -7.707399256235758 2.1530500637611105 1 1 -1
420 119 2 0.527 -6.169612229541897 -8.01520643342006 2.5226227053895656 1 1 -1
1130 356 2 0.527 -4.159383415282062 -6.1664919255848805 8.681847664217962 0 1 0
790 243 1 -1.054 -6.244424082233319 -0.6368669055716669 4.216510504782104 1 -1 0
690 209 2 0.527 8.462239977826265 -1.99789567215422 7.492014211460162 0 -1 0
1166 368 2 0.527 3.497580467868291 -2.471583549322091 7.535388001572063 -1 0 -1
758 232 2 0.527 -5.260721170637643 -6.3275566226080535 3.8043989912424827 0 0 0
1129 356 1 -1.054 -3.401820917927026 -5.587366446382578 8.765177005103798 0 1 0
742 227 1 -1.054 1.7072416890601367 -8.598983295625422 9.333831694564182 1 0 -1
636 191 2 0.527 -0.35355317331047154 -0.12635243385260786 7.877713398133263 1 1 0
602 180 2 0.527 0.9170880405345887 -5.51465253796452 8.248859133162718 1 0 0
750 229 2 0.527 -3.153706637446966 -0.6537417496193854 8.164806319110173 1 0 0
688 209 1 -1.054 -8.270717326060964 -1.887476908924329 7.0709320021833655 1 -1 0
1196 378 2 0.527 -4.083136275995492 -2.7523454154536022 6.592867938646748 1 0 -1
515 151 2 0.527 8.265286248955462 -4.960926562289397 0.355762915334239 0 0 0
1530 489 2 0.527 -8.215132422932202 -2.6905977231141733 5.128568537144796 0 1 -1
1528 489 1 -1.054 -7.941794126721595 -2.8021062777348185 4.2180281723756785 0 1 -1
375 104 2 0.527 -6.8329040427329195 -8.721693360585931 7.103528380869811 0 0 -1
998 312 2 0.527 -4.779203500135134 -3.9303618394275137 4.7612704967795025 0 0 0
949 296 1 -1.054 -8.41793370975554 -6.771846151827065 9.172020738205642 0 1 -1
997 312 1 -1.054 -5.366995217439548 -4.231739496529079 4.068519609948588 0 0 0
999 312 2 0.527 -4.88903458930781 -4.060785567763685 3.257002568507346 0 0 0
24 1 3 -0.01 1.5383847106516682 -0.2197037793006651 1.310394053055501 0 0 0
1529 489 2 0.527 -7.304476699043292 -3.515800140230766 4.244463821465521 0 1 -1
570 169 2 0.527 -6.776846403265392 -2.824471042120411 7.770873179195728 1 0 -1
1197 378 2 0.527 -4.6327876319166075 -1.8840175562057455 5.481209321106288 1 0 -1
251 63 2 0.527 -0.953732518092056 -7.116133609256577 1.5727833949278978 0 0 -1
201 46 2 0.527 0.8390985747071458 -1.7454802855848737 8.87248977073267 0 0 0
568 169 1 -1.054 -6.0056661557668125 -3.383459023260781 7.865975705688779 1 0 -1
374 104 2 0.527 -6.728637189113346 -7.449830141886902 7.918014456003398 0 0 -1
1138 359 1 -1.054 -1.6629804020848393 -7.816688591651181 8.781777472333708 1 1 -1
419 119 2 0.527 -7.407655473764859 -7.212923653216285 2.8624525495779185 1 1 -1
250 63 1 -1.054 -1.7769581532493675 -7.137918864276289 1.0848737176363077 0 0 -1
373 104 1 -1.054 -6.587353323545757 -7.798849733072543 7.03798262968742 0 0 -1
569 169 2 0.527 -6.359917214619966 -4.247095575129273 8.077800610275585 1 0 -1
409 116 1 -1.054 6.16018633071627 -5.715880879893873 5.992885722432012 -1 -1 -1
1144 361 1 -1.054 0.06571971185236336 -9.015659659193961 6.523608768783262 0 1 -1
792 243 2 0.527 -6.467823531397658 -0.2892804570730618 3.3530823702400703 1 -1 0
54 1 5 0.09 -1.225136120136958 -2.146745016365436 0.26261452745467906 0 0 0
1139 359 2 0.527 -1.5748157652791601 -8.121844341152597 7.878816343382326 1 1 -1
707 215 2 0.527 -1.1419736902274504 -8.88056791550809 4.888299029977363 0 0 0
1092 343 2 0.527 -2.6527397509611133 -1.3786202695337124 2.374512113974003 0 1 0
682 207 1 -1.054 -3.282847932578167 -2.4288406388928383 8.615097713791712 0 0 -1
70 3 1 -1.054 7.088840202044153 -3.001134634075264 3.1682222623369007 1 0 -1
56 1 5 0.09 -0.12232963868625812 -4.1952196721847335 0.875505271503818 0 0 0
684 207 2 0.527 -4.190673656004253 -2.720835358075049 8.532500619597606 0 0 -1
234 57 2 0.527 0.5539535693549826 -7.398581762306459 3.6819305388602537 0 0 0
26 1 5 0.09 0.8708376330358548 -0.9583738661858867 0.6536423613328005 0 0 0
233 57 2 0.527 0.75139099640365 -6.12564752814832 2.8865991197374257 0 0 0
232 57 1 -1.054 1.028742609136101 -7.0406695799178305 2.931793377971781 0 0 0
252 63 2 0.527 -1.8512448579353524 -8.042145716241926 0.7797718919572674 0 0 -1
422 120 2 0.527 6.6142584044831985 -8.921083263900723 4.9577177517496125 -1 -1 -1
1090 343 1 -1.054 -2.9104281141330937 -0.9020546432559904 1.5853900271934158 0 1 0
308 82 2 0.527 6.6386743995378215 -1.4273469483318202 9.03713172417173 -1 0 -1
385 108 1 -1.054 2.7952375505432965 -0.002195080275246397 5.878161287958797 -1 1 -1
787 242 1 -1.054 7.211690926570071 -6.568131326866789 0.13164544013340773 -1 0 0
603 180 2 0.527 2.2866776299310523 -5.177475060789662 8.798793939813798 1 0 0
601 180 1 -1.054 1.7612922750200521 -5.907359127485803 8.47096632685679 1 0 0
744 227 2 0.527 0.8255940732904481 -8.753605679157529 8.994685461947547 1 0 -1
791 243 2 0.527 -6.817294962875306 -1.395970432894572 4.325194536045386 1 -1 0
421 120 1 -1.054 7.53058755899173 -8.810500414108827 4.7040585521015394 -1 -1 -1
950 296 2 0.527 8.232757943923033 -6.6784260232626576 9.35572465999725 -1 1 -1
1145 361 2 0.527 0.8362319650282934 -8.47471119607831 6.35064449513396 0 1 -1
327 88 2 0.527 -7.466196621357052 -6.8364414967762 5.54194377779457 1 0 -1
326 88 2 0.527 -8.680231205776082 -7.347317467065308 4.795606785146703 1 0 -1
325 88 1 -1.054 -7.951443686431545 -6.7309415558940175 4.7236305254706075 1 0 -1
22 1 5 0.09 0.020636933291845353 -1.0561324319570595 2.8936610648538634 0 0 0
328 89 1 -1.054 3.810763115225667 -7.502931219211649 2.4081379159600846 0 0 0
834 257 2 0.527 5.898533171325461 -2.270136181550706 5.783860582753906 0 1 0
832 257 1 -1.054 6.758289594693016 -1.9077097716517555 5.57009249306045 0 1 0
789 242 2 0.527 6.972644001341276 -7.3623964895204015 0.6093809360934337 -1 0 0
411 116 2 0.527 6.041170220527434 -6.1139993585382975 6.855190006300212 -1 -1 -1
29 1 5 0.09 3.4134189066725007 -0.14895125400116638 0.20900550701960877 0 0 0
833 257 2 0.527 6.6096742554424 -0.9650228556303144 5.496020270808927 0 1 0
1035 324 2 0.527 2.8562683014614727 -6.085094170400037 5.650271628239299 0 1 0
1127 355 2 0.527 3.1287741635851702 -2.9999787718403024 4.677774507738963 0 1 -1
962 300 2 0.527 5.655088863635488 -5.593801454020722 1.6640072060754107 -1 1 -1
1128 355 2 0.527 2.5781692579663265 -1.6042021183678665 4.879111487650885 0 1 -1
1201 380 1 -1.054 4.582907325051071 -9.025142284136873 4.743576578758329 0 1 0
188 42 2 0.527 1.4976301738053 -2.511312261995853 6.03363112389688 0 0 -1
410 116 2 0.527 6.908782515361503 -6.178455691994611 5.616243477304691 -1 -1 -1
187 42 1 -1.054 0.9419731390863131 -2.2518981532611377 6.768601183895562 0 0 -1
189 42 2 0.527 0.7704997097711122 -1.3214879752039028 6.623117259228273 0 0 -1
920 286 2 0.527 4.591752926310084 -5.028353562540026 5.1795803558557445 0 0 -1
329 89 2 0.527 4.254444138790586 -6.751737134465777 2.8019477397077193 0 0 0
1039 326 1 -1.054 6.757832445965644 -8.917978547061429 1.7885808120509523 0 1 -1
919 286 1 -1.054 3.8294683190033876 -4.783581992148374 4.654947020822895 0 0 -1
446 128 2 0.527 5.612216909440148 -0.5925076231775321 2.218781188311649 -1 -1 0
1034 324 2 0.527 2.3313404818715213 -6.6041180935281325 6.971997697340409 0 1 0
1126 355 1 -1.054 2.415087167610112 -2.4216770114671924 4.408610833395912 0 1 -1
1263 400 2 0.527 -4.77039122890054 -1.422644821903706 0.5098852341209454 0 1 0
330 89 2 0.527 2.8979470449949982 -7.413090487215634 2.681864340051856 0 0 0
447 128 2 0.527 6.39405395298861 -1.8708376143230083 2.0031480212124144 -1 -1 0
445 128 1 -1.054 6.114346565369715 -1.070509139389948 1.5587721961399374 -1 -1 0
1175 371 2 0.527 3.332839771199131 -9.131984211510883 8.232911365830503 -1 1 -1
514 151 1 -1.054 -8.791593837377718 -4.18016685048064 0.1906290583605461 1 0 0
1203 380 2 0.527 4.52886636619259 -8.442321851626657 3.9861917604595547 0 1 0
795 244 2 0.527 3.9444586867567963 -6.698920009208702 0.3934217010597667 -2 0 0
921 286 2 0.527 4.127688565788715 -4.859126480197876 3.7485313087033933 0 0 -1
72 3 2 0.527 8.02213037469015 -3.212921798835751 3.1868314496264887 1 0 -1
1040 326 2 0.527 6.0964782874025705 -8.551994926724232 2.3758609002746844 0 1 -1
1167 368 2 0.527 4.4848780194604725 -3.575799142787764 7.2225855793639155 -1 0 -1
309 82 2 0.527 6.222500738029272 -2.4508930422958883 8.00221731692902 -1 0 -1
1165 368 1 -1.054 4.201103815380868 -2.7092459743383923 6.931399075898078 -1 0 -1
1033 324 1 -1.054 2.6521538344145927 -6.894750018073227 6.118274330186887 0 1 0
307 82 1 -1.054 6.872427861870177 -2.286347648829315 8.685408942261887 -1 0 -1
963 300 2 0.527 5.774155044601738 -4.602972216261279 2.802416558559063 -1 1 -1
1041 326 2 0.527 7.568393535970454 -8.89722702115933 2.2972958810510633 0 1 -1
71 3 2 0.527 6.881744733143995 -2.7500032054713905 4.068375750545016 1 0 -1
1202 380 2 0.527 4.27567002096837 -8.493522161944327 5.477890540970691 0 1 0
961 300 1 -1.054 5.367575654521849 -5.435871417763109 2.563243544793316 -1 1 -1
1140 359 2 0.527 -1.9855051449718024 -6.919059197730551 8.701335098456312 1 1 -1
61 1 5 0.09 1.8443916204785629 -5.355890636495483 0.0917475378153271 0 0 0
1063 334 1 -1.054 2.8335244211507273 -3.485373293522496 9.360002244996355 0 1 -1
458 132 2 0.527 5.355999090432997 -7.246888387320094 9.095645662197803 -1 0 -1
25 1 5 0.09 2.1620646993415473 -0.8836300382499627 2.0222802019583836 0 0 0
63 1 5 0.09 0.7129192601054141 -7.356622640365127 0.08507962523220317 0 0 0
1091 343 2 0.527 -2.134397572208858 -0.3948378185580008 1.3471911857546228 0 1 0
199 46 1 -1.054 0.7214062582312675 -1.0144606041051318 9.479112033973678 0 0 0
1518 485 2 0.527 -2.683068245992281 4.0431606960300535 -1.6627561187136015 0 0 1
1434 457 2 0.527 -7.2008151819720965 3.5419625913356363 -6.552306671921281 1 0 0
653 197 2 0.527 -0.18215381977708311 2.4405844760936706 -7.437271594825753 -1 0 1
1432 457 1 -1.054 -6.592070667614443 3.9039403538606408 -7.196227114549237 1 0 0
1433 457 2 0.527 -6.284956443235684 3.1436354768412684 -7.690037881646612 1 0 0
1407 448 2 0.527 -4.668528954496569 5.623273475165863 -9.078063796636322 0 0 1
1070 336 2 0.527 -7.174155479549262 0.8855244757661627 -3.6258829372390675 1 1 0
654 197 2 0.527 -1.3575234543813668 3.1066386685696443 -6.754064943631516 -1 0 1
1069 336 1 -1.054 -6.942389832309231 1.5032932855430445 -4.319336747321234 1 1 0
774 237 2 0.527 7.580263120207743 2.6160750689829335 -0.4377082792705007 -1 0 1
1301 413 2 0.527 4.156005021585051 0.7962197737551708 -7.2282433576153835 0 0 1
652 197 1 -1.054 -1.1212980959770533 2.6000589834847787 -7.531114739224553 -1 0 1
1473 470 2 0.527 -5.136129217999254 4.600685305115098 -5.5834478961554606 0 -1 0
41 1 3 -0.01 -0.5165787088186579 0.2815445576939879 -4.03954417586284 0 0 0
1459 466 1 -1.054 -3.721899924922025 2.418688076368573 -1.3111741174330689 0 1 0
39 1 5 0.09 -0.7396432904515694 2.191350041742077 -2.9161537765255545 0 0 0
321 86 2 0.527 1.327619757711961 9.37195879297142 -7.868252845782687 0 -1 0
924 287 2 0.527 -3.872748149556359 9.039942893610359 -6.78708233546163 0 1 0
264 67 2 0.527 -3.0371335955592134 3.5196377110318995 -5.047471607619196 0 1 0
1549 496 1 -1.054 -4.998601660989589 7.622974250308239 -3.7684134896105608 -1 0 0
1550 496 2 0.527 -5.8872201438541385 7.875703040746526 -4.018845346239372 -1 0 0
1551 496 2 0.527 -4.825523086332107 6.826016282789698 -4.269545825983129 -1 0 0
922 287 1 -1.054 -3.569735098279361 8.20403117497542 -7.1415769884163485 0 1 0
262 67 1 -1.054 -2.138672980075449 3.7905975634412954 -5.236098248725078 0 1 0
923 287 2 0.527 -4.369271882837168 7.7575511374876065 -7.420194226769607 0 1 0
1471 470 1 -1.054 -4.855507718763193 4.967844589638304 -4.74518935053228 0 -1 0
38 1 3 -0.01 0.05685838058676762 1.5915393846963173 -3.5196210785758995 0 0 0
1472 470 2 0.527 -5.560284873906429 4.744280438838764 -4.1372918337368745 0 -1 0
1532 490 2 0.527 7.180658439245455 5.893142411568377 -8.531031812946898 -1 0 2
263 67 2 0.527 -2.2195156128963864 4.694460598992126 -5.540610860827149 0 1 0
1420 453 1 -1.054 -2.4971090583541846 7.330964156535998 -0.7936553965262441 0 -1 1
1516 485 1 -1.054 -2.253057672355247 4.756892502538593 -2.1338287290083056 0 0 1
1517 485 2 0.527 -2.076307771189872 4.398246789168002 -3.0035209330221324 0 0 1
1421 453 2 0.527 -3.445051244243796 7.463719590746958 -0.7901609350232199 0 -1 1
779 239 2 0.527 7.0770913348418 0.7195744446205783 -4.742471961035819 -1 -1 0
1071 336 2 0.527 -6.0038080508801395 1.3720846567565772 -4.453795644046671 1 1 0
1271 403 2 0.527 -4.153012112360468 1.9800110728803233 -6.410085386578776 0 0 1
1367 435 2 0.527 -3.132652750906825 8.460475920185374 -3.8012348983409643 0 0 0
933 290 2 0.527 -4.3834781459594705 0.8619732524623736 -2.255197457850336 1 0 -1
406 115 1 -1.054 -1.9859430931883288 6.459608060242168 -5.610202589033951 -1 -1 0
408 115 2 0.527 -2.468901443445695 6.793320959138594 -6.366257135477722 -1 -1 0
1422 453 2 0.527 -2.37917796932658 6.452179118447553 -1.154295102306648 0 -1 1
380 106 2 0.527 -7.830555187292198 1.802903185448148 -5.765088594166739 0 -1 0
42 1 5 0.09 -1.4398608476359855 0.639528458438529 -4.67070543293429 0 0 0
379 106 1 -1.054 -8.253662238415005 1.6135781110090903 -6.602565787327117 0 -1 0
1547 495 2 0.527 -7.690339036093457 1.058555683214749 -8.20036562824552 0 0 0
40 1 5 0.09 0.25696579133223996 2.2221242250067577 -4.424608062807893 0 0 0
931 290 1 -1.054 -4.7858715738391915 0.01444020299977744 -2.444931151332744 1 0 -1
1256 398 2 0.527 6.631107511178124 6.156060930285625 -5.188501864768909 0 0 1
1111 350 1 -1.054 -5.364866213295651 7.825247089128226 -1.1373227966429873 0 1 0
953 297 2 0.527 1.358901567351685 8.427050469082598 -3.2829316690858033 0 0 0
558 165 2 0.527 5.227715066373262 8.232244072930897 -0.3628079768079857 0 0 0
1112 350 2 0.527 -5.727745491513076 8.710909984769721 -1.1496334978088072 0 1 0
1485 474 2 0.527 5.510192163428721 4.6467951651129855 -8.951057847231926 0 0 0
773 237 2 0.527 8.241772718354628 3.6247590870474156 -1.3525067173958547 -1 0 1
1044 327 2 0.527 3.2715403612185074 0.26732904999768436 -9.523862804667282 0 -1 0
1270 403 1 -1.054 -4.205389436228928 1.8256415538303674 -5.466868275295593 0 0 1
1368 435 2 0.527 -2.24453014873201 8.002405192730421 -2.6639998097233413 0 0 0
1113 350 2 0.527 -5.276013519954493 7.589445130950111 -2.060759057423538 0 1 0
1427 455 2 0.527 -7.884278950146319 7.998002503266356 -5.176842525064061 1 -1 0
756 231 2 0.527 -7.947044007153315 8.367866122317203 -7.319719727643436 1 0 0