LAMMPS data file via write_data, version 23 Jun 2022, timestep = 10000

1600 atoms
2 atom types

-20 20 xlo xhi
-20 20 ylo yhi
-20 20 zlo zhi

Masses

1 1
2 1

Pair Coeffs # lj/cut

1 1 1
2 0.5 3

Atoms # atomic

23 1 -15.772391255900414 -19.37035689185357 19.550843494587877 0 0 -1
1372 1 -8.10976152943977 -19.02270561337269 -18.4869929792109 0 0 1
1018 1 6.7328341814094115 -18.643756446967714 -19.46984721437838 0 0 0
1230 1 8.600638203447716 -18.790816058252783 -19.32560050010751 0 1 0
1365 1 1.937666147083195 -17.461283654585763 -18.66783824724032 0 1 1
220 1 3.210604931508348 -17.14147408235964 19.471174719486434 0 0 0
1212 1 7.605675994231608 -15.798026228112494 19.859530928431163 0 0 -1
1103 1 -6.483617646114986 -16.31072032087584 -18.19986804058935 0 0 0
40 1 -16.148640350289163 -13.309449167381155 19.56955732314079 0 0 -1
1035 1 18.48014869069543 -14.892490322523695 -19.17212271845401 0 0 1
451 1 -11.726256030650388 -10.79240945270997 -19.218782378650776 0 0 0
1439 1 9.59129764399141 -11.216449026407645 -18.550976868683783 0 0 1
1479 1 1.4965277044799457 -12.640926575292431 -18.38203285598378 0 0 0
1038 1 8.166623142172831 -11.387315560133601 -17.077702173343773 0 0 1
631 1 -18.101150779022866 -7.4952565797759645 -18.504626005034442 0 0 0
100 1 -14.141154926678855 -8.432010330342116 -18.88510221144794 0 0 0
934 1 -6.637007165157113 -6.806417473201562 19.6845190772452 0 0 0
324 1 16.582555357839645 -9.015083539526799 -19.177615534666042 0 0 0
1328 1 -5.29207446436068 -5.473988688671471 -19.82330836725694 0 0 1
988 1 -0.7846301443026621 -5.588345277368505 -17.972156572477235 0 0 0
1578 2 0.42488604902930055 -4.331195053981697 -19.769614229700505 0 0 0
1594 2 -8.632538302417114 -0.669056757202482 -19.48459133826476 0 0 0
397 1 4.149824251982653 -1.62620054102684 -18.668322652689948 0 0 1
1201 1 14.70356259795686 -2.564809875647426 19.06464930633134 0 0 -1
1412 1 5.929212909770528 -1.2915682420094812 18.560654209166408 0 0 -1
72 1 7.746139329347038 -0.9012531508191914 19.97860453489713 0 0 -1
908 1 -12.160313064622981 1.4503928062587126 -19.939365916427526 0 0 0
1223 1 -13.538460584824733 3.1225925033421316 -18.55365173194649 0 0 1
851 1 0.2097176698627324 1.6242777213845654 19.74548685806004 0 0 0
565 1 9.570921062557561 1.0633641764519637 -18.087088365848523 0 0 1
170 1 3.8125501454535256 3.0591336702166303 -19.985639122847996 0 0 1
918 1 0.6434574739797838 6.328407939591577 -18.068300609331953 0 0 0
135 1 13.867337941537617 7.574613983031477 19.77030403697303 0 0 -1
1366 1 -6.585063136006951 6.180976423385622 -18.57688697394567 0 0 0
1039 1 3.8350562854921546 6.887704552397581 -19.286311882228535 0 0 0
1326 1 13.111050823575603 7.641163103289769 -19.28255916849134 0 0 0
207 1 18.76858662340576 6.957416788686359 -18.085239044738678 0 0 1
1085 1 -17.466251579600467 7.561395624236748 -19.531708720919116 0 0 0
1011 1 -12.488520967263048 9.621165329073476 -18.361187611990086 0 0 0
737 1 -7.411477997715653 10.07815499508068 -19.231648577844986 0 0 0
47 1 -16.94782394600232 11.36011689700803 -19.873884827347137 0 0 0
1190 1 2.528576952723659 9.665226102073571 -19.71412685213517 0 0 0
145 1 -11.576174170361647 14.109484634722703 -18.96881385363815 0 0 1
575 1 -7.469188947987179 12.769551478636961 -19.370344945598607 0 0 0
909 1 -3.075119821875022 14.710005063267197 -17.869440084127547 0 0 1
750 1 -11.941885398479208 15.058466418720977 -18.672661273036013 0 0 0
1332 1 -13.936557454452831 17.75875318313315 -18.629696635374934 0 -1 0
433 1 -6.974508604343345 16.01647713490099 18.82334928334439 0 0 -1
68 1 15.326375813727278 17.076431826550188 -18.980237238657438 0 0 1
1363 1 -19.70167982909923 18.055862739017634 -19.369267642849607 0 -1 0
1563 2 -14.54618506641287 19.326439051314235 -19.29492032783937 0 -1 1
211 1 13.344552913240202 19.001643795141042 -18.63264382396824 0 0 0
1590 2 -7.099415970819483 19.170813881732528 -18.22173440894893 0 0 1
412 1 -1.253731980055955 18.813453734829938 -18.746364669327498 0 -1 0
1512 2 5.228121457758068 -18.779826394602072 -17.79772179843847 0 1 0
959 1 6.81042469911556 -19.508579889415152 -18.576723256213416 0 1 0
36 1 1.3968373001532401 19.362703527975057 -16.547980696203183 0 -1 0
1300 1 18.037849681825097 -14.044758495450713 -18.18038440217241 -1 0 1
560 1 -3.3769645505608614 -12.772544828228275 -18.857515303434752 0 0 0
617 1 10.720005370465376 -12.46046213248665 -19.134807222786065 0 0 0
1433 1 -18.220612146924562 -8.538497468656935 -18.845232092138392 0 0 0
563 1 -6.942339356904525 -11.308843411241513 -18.166761900430117 0 0 0
1000 1 -1.8054404908517618 -9.245865104893046 -15.418761832210429 0 0 0
1431 1 -4.61640644388537 -6.857777853187412 -17.036709735572924 0 0 0
50 1 -0.6907344195370991 -8.484124779280712 -16.986319399461838 0 0 0
1582 2 0.8815255381522304 -7.336313263087557 -16.89223169677262 0 0 0
1480 1 -19.103137379651972 -7.053462982326118 -18.904959593535523 0 0 0
537 1 -2.355271521472895 -4.708050265195804 -18.202372605389208 0 0 0
62 1 11.18391692067943 -3.7454948240160033 -18.938284786306184 0 0 0
1003 1 15.235786526751813 -5.649645981819199 -17.826159746113884 0 0 0
1234 1 19.894444876884858 -2.7694745815569943 -17.31852577814287 -1 0 0
53 1 9.181446864828002 -3.910569979031241 -19.0335651901979 0 0 0
274 1 -18.189679770511475 -2.9089270401078857 -17.85661968838309 0 0 0
761 1 -16.670309014367948 0.6446923813967511 -18.12704718481442 0 0 1
624 1 -6.165359746246198 1.6135618516619117 -18.595414697255197 0 0 0
614 1 11.42828293496473 3.3829763440225857 19.905284442797935 0 0 0
1081 1 12.504426566065964 1.3343207550341574 -18.457415638011785 0 0 0
288 1 8.617650415749432 1.3961058034809597 -17.283917054087162 0 0 0
51 1 13.712291796091298 4.9134960537372265 -16.58740618683066 0 0 1
721 1 -4.751546484716067 6.125276450065512 -17.45611342259759 0 0 1
199 1 12.94995631218071 7.707732496845508 -18.267448067794167 0 0 0
929 1 -6.9078176242274845 8.898216546803908 -18.596786585051273 0 0 1
1320 1 11.764095626060055 9.735830334070153 -18.469157525255593 0 0 0
892 1 19.61206804249332 8.804536203478976 -18.383485194255737 -1 0 0
787 1 19.03048430728345 10.295631607057144 -18.635299204135837 0 0 0
771 1 -8.339173570158017 9.365359953857569 -18.932222090458286 0 0 1
458 1 -7.417272803382164 10.394004075591868 -18.12235867615978 0 0 0
1210 1 -8.30056158769911 9.42539987676999 -16.96792468283407 0 0 0
605 1 18.6032231667614 10.763680138791067 -16.935171260482328 0 0 0
1108 1 17.38653866739414 11.097998408590923 -18.385193069285297 0 0 0
1292 1 1.3039178495827937 16.214778104625875 -17.485723320930244 0 0 1
1162 1 13.881308887231146 16.274170201551645 -18.044137757483366 0 0 0
670 1 -2.0672102392727543 17.10741128066294 -19.892435051110983 0 0 0
876 1 19.40175189600136 19.519682046052527 -17.491498837873987 -1 0 0
115 1 -12.19339248228817 -19.722362104123278 -16.71324018680217 0 0 0
694 1 16.377796760473615 -19.096811818674016 -15.955673809495877 0 0 0
429 1 19.472216256243392 -19.134109640263173 -17.894706895820885 -1 0 0
1072 1 -14.053840857350782 -17.68066107579038 -16.699771654622314 1 0 1
375 1 -15.520229175003076 19.286113593659998 -15.766086377404685 0 0 1
436 1 2.764082223980588 -19.146704041834887 -15.848457064750159 0 0 0
1476 1 5.998422680180787 -18.2473552751386 -15.72141457769447 0 0 1
252 1 9.537315823170708 -16.60030962304373 -16.145013173561434 0 0 0
389 1 11.834890308096458 -14.919838616508313 -18.058397996353133 0 0 0
578 1 -17.550798630678653 -14.950161572421917 -18.854825491852374 0 0 0
280 1 2.8744030720741294 -16.06017088730179 -15.949610504198908 0 0 0
480 1 7.290605523025835 -15.565131145828337 -16.6160591924805 0 0 0
774 1 0.6799934799342222 -14.356374321596526 -17.109360709497636 0 0 0
194 1 8.338759990038593 -14.01550852207695 -14.273957922209009 0 0 0
251 1 12.505112418954434 -13.97266090814106 -17.41033515794265 0 0 0
1407 1 11.720048672927048 -13.03787957106062 -17.65611266674923 0 0 0
516 1 -19.39139648027738 -11.797047433373146 -15.924047307083702 0 0 0
97 1 -0.3639582873789105 -10.548132709638377 -17.709431860757157 0 0 1
253 1 2.116716971737212 -9.627122920313951 -16.81251203618716 0 0 0
58 1 16.62116493192094 -10.211631522949116 -17.986133107229584 0 0 1
1086 1 19.13165188992691 -10.06575453771703 -15.71734608037553 0 0 0
910 1 5.571269705995795 -10.095729740862048 -16.96209368620385 0 0 0
1595 2 15.887896480410696 -8.395446194002659 -17.02398370284842 0 0 0
467 1 -4.26454914749181 -8.1283055218587 -16.433399842618343 0 0 0
383 1 -14.771526883090932 -4.529272426978669 -17.23737302669754 0 0 0
1132 1 -8.071466144869145 -4.211780863559935 -15.105633853786166 0 0 0
1443 1 15.152415370122624 -5.921056692017725 -14.556547293096042 0 0 0
401 1 -11.970510437019062 -5.13263382411327 -16.87338991451137 0 0 0
962 1 14.298022756240472 -4.9862400878629956 -17.31106360113942 0 0 0
719 1 16.212468772931445 -3.1694249337948976 -14.999167274228187 0 0 0
103 1 -11.726357132349664 -1.338015314458474 -17.090991320992966 0 0 0
948 1 -3.8661450217389697 -0.07365049451966983 -15.064559748051762 0 0 0
1319 1 3.5628190224877954 -1.7598356401996134 -16.99609787495011 0 0 0
1236 1 11.944139239216561 -1.8237263892401905 -17.443790448558545 0 0 0
931 1 18.288956192784656 -3.109601850248246 -14.556967586047387 0 0 0
205 1 19.633644410270566 -0.8644232506936346 -16.12535748252415 -1 0 0
592 1 -5.191431764794811 -0.03262033198109937 -14.50982524359301 0 0 0
289 1 4.324824280381721 -1.2089108157275985 -17.188817809904148 0 0 0
1093 1 13.388693001898528 0.9964712780556799 -16.280588894158903 0 0 0
492 1 -16.462968068308726 1.3899446018901223 -16.478151118549384 0 0 0
490 1 -10.893587804786542 -1.3615736622701333 -15.124236165818711 0 0 0
1095 1 5.2454649634479935 1.9559994942525576 -15.77911836210609 0 0 0
1036 1 7.4270509729866205 1.3090554821523779 -15.57557355064066 0 0 0
806 1 -9.757904751515087 1.2893567975701552 -15.357764228778763 0 0 0
156 1 16.368947827477783 2.810983834294245 -17.802105390633503 0 0 0
595 1 -8.702230937448832 4.067320399172311 -14.489154287287123 0 0 0
1099 1 16.720725605501595 4.4002035173159975 -17.045026289191473 0 0 0
607 1 17.42637157505749 2.49294320809191 -17.85099172196296 0 0 0
1213 1 5.7160238284462705 5.379495415161419 -16.53236057547158 0 0 0
290 1 -5.62804772558293 6.5468412771883004 -15.10656882054089 0 0 0
937 1 -3.029107205826956 8.035700981909 -17.153136701272867 0 0 0
869 1 -17.863127641825464 9.857337719194097 -15.7396417311738 1 0 0
1401 1 -9.562412901917611 10.365206115887498 -17.540518050626282 0 0 0
1416 1 -12.95467283804628 15.740599673494183 -16.518500137445116 0 0 0
1472 1 0.6987468912884641 13.092069830973823 -17.163759121977076 0 0 0
939 1 -18.399113895553157 13.179624831588129 -16.115486934321012 0 0 0
523 1 4.974731224457631 15.665749810813647 -17.02764976408426 0 0 0
548 1 -8.00975971449675 14.842610911434187 -16.861045168122168 0 0 0
968 1 2.0334339004442743 17.05140545082077 -14.445865022239172 0 0 0
1324 1 8.35213410915682 18.418504777099233 -17.42306404766466 0 0 1
1438 1 18.418046370647144 19.19201966763633 -14.79719719322494 0 -1 0
532 1 -10.601450874669313 18.64530857413743 -14.94775715843497 0 -1 0
1560 2 19.497976194390155 -17.83117201862194 -15.066857576924699 0 1 0
714 1 -9.952031949106324 -15.332328632899117 -13.2645066341808 0 0 0
1175 1 15.424730415736212 -16.13342610774466 -14.719350741993935 0 0 0
541 1 17.436105745358937 -15.219822685384548 -14.683523981941631 -1 0 0
684 1 -4.268184214109139 -12.753910631053337 -17.5201489624002 0 0 0
1356 1 -13.377048065797075 -12.664690157057079 -15.722499669645462 0 0 0
386 1 16.827756261031777 -10.784230346471793 -15.597007725009238 0 0 0
738 1 19.64292058406894 -10.85949227580816 -15.18403800109751 -1 0 1
813 1 -15.78665858682296 -13.478500234421759 -14.422659980340658 0 0 0
246 1 -14.560827314847698 -11.3793003428722 -13.981608208777109 0 0 0
310 1 -10.140970941804923 -10.379374699745568 -15.76101495195869 0 0 0
861 1 6.957433562160194 -11.542238829065452 -13.993127394157419 0 0 0
1226 1 -9.667288001699742 -9.908582359106196 -14.829094944650798 0 0 0
874 1 -3.6783452051232954 -7.190284377373199 -15.80372852209015 0 0 0
484 1 -19.362041177324674 -5.898668993526892 -15.402491662475633 0 0 0
33 1 11.498906454232607 -7.959277820662833 -14.692503657456195 0 0 0
1007 1 -14.22702950018356 -5.66168050994143 -15.033003304735763 0 0 0
1283 1 -12.032350696321535 -5.312446817946682 -14.967961753394421 0 0 0
188 1 -9.950028317435805 -5.362443793223924 -14.089660445138861 0 0 0
1274 1 17.677567016512857 -5.42756968218779 -13.091660768045914 0 0 0
1008 1 -12.761364090212812 0.8796352259272352 -14.36878789358904 0 0 0
894 1 -9.561712250464508 -1.371435047525623 -14.137911576214275 0 0 0
340 1 6.494250145067183 2.46396430228673 -15.734731026763235 0 0 0
1 1 9.747122461201597 0.3237916224534432 -13.990009730650083 0 0 1
955 1 -14.138873869549716 2.753299117966156 -15.307685101739425 0 0 0
807 1 -2.345126753031742 3.7041533924479544 -14.90288814349438 0 0 0
1473 1 0.5054419789396688 2.3820010108525684 -16.387635220881823 0 0 0
52 1 7.1111492493138755 3.7579200347020607 -17.117272017555283 0 0 0
1321 1 -0.422262697975231 3.913571161953727 -14.759302374232439 0 0 0
840 1 5.2619680212431925 3.647562916201249 -14.60845557300899 0 0 0
275 1 6.9606511849785395 6.1304502172457775 -15.788900586231176 0 0 0
762 1 -19.559945960091202 7.587724541478901 -13.70555432732657 1 0 0
420 1 -13.361276182512377 6.712276288359524 -15.004574016079742 1 0 0
144 1 -6.934045780922422 6.266174894962283 -15.668938127551307 0 0 1
926 1 -6.860498692102518 7.885602978048776 -13.9415909597435 0 0 0
216 1 9.244744936439433 7.934668481371159 -15.5064021870731 0 0 0
882 1 -14.953001041850449 13.804514225639911 -16.806752447249206 0 0 0
781 1 -6.5746152448715245 15.127030154031319 -15.994180802506879 0 0 0
940 1 1.4706077134419715 12.935321513810392 -16.448966497565156 0 0 0
415 1 5.676299157874246 13.603742619833255 -14.880741788757389 0 0 0
1516 2 -19.99908596822835 15.068332865975801 -15.651966234455431 1 0 0
1395 1 -14.862802930404397 13.535078608144465 -15.361090544294282 0 0 1
258 1 -5.936819163562372 16.928325058929303 -14.126544412794036 0 0 0
609 1 -17.827381598960898 15.937689634399808 -13.51197468036393 0 0 1
792 1 4.502409908720395 13.557074212068875 -15.10120340508457 0 0 0
1574 2 -13.81950661484342 19.134359157530117 -16.5623421542131 0 0 0
217 1 -5.67214996695715 16.596247402146336 -12.28811287573698 0 0 0
10 1 14.274172791029557 16.949837260550062 -13.440485053388045 0 -1 0
125 1 15.816212030352535 17.885245950997884 -12.356876212253777 0 0 0
495 1 -8.175607153542735 -19.714428827599356 -13.572580322959414 0 0 0
20 1 9.067757663908653 -18.10437731893561 -11.57161585815788 0 1 0
126 1 -15.079600606501605 -17.075198402548835 -15.545027936256574 0 0 0
621 1 8.701389102418272 -18.55525485488021 -13.24970268822535 0 1 0
399 1 16.960936377368753 -17.6486161810968 -13.006415331746187 0 0 0
839 1 9.078869042506543 -15.699915202197412 -11.66134504248573 0 1 0
610 1 11.462071600430084 -17.102158081320145 -14.299712067341936 0 0 0
525 1 -14.333747848657913 -14.463574127764971 -14.679299218215915 0 0 0
1329 1 14.654486662419906 -15.185757148619041 -13.70346350158186 0 0 0
259 1 -19.47411022214048 -14.298766368913057 -13.955381832290216 1 0 0
230 1 7.681561799497953 -12.348396116421652 -13.744138353386857 -1 0 0
1362 1 14.410410914910518 -13.193480842847206 -15.631367740454053 0 0 0
1593 2 -13.421262857326537 -13.09836461107033 -13.644230643351115 0 0 0
1293 1 5.079596739019793 -10.918799387508882 -12.318512103318671 0 0 0
1005 1 -19.996446393645698 -10.797368334506434 -13.31889960841483 1 0 0
28 1 -17.85707609706092 -9.019714595873586 -12.572674823097653 1 0 0
172 1 -3.939665019917378 -9.296131348428053 -15.192308529685311 0 0 0
465 1 1.7552357546181911 -8.09725583665495 -14.40786924883727 0 0 0
878 1 -9.19816668124369 -6.95385704239644 -15.337717829693759 0 0 0
819 1 -9.080488168592613 -8.061807964103533 -15.827268317121295 0 0 0
960 1 -3.826643541187336 -7.841121078719881 -13.609353690383557 0 0 0
466 1 16.24126086278549 -7.681553138134376 -14.15171388585107 0 0 0
88 1 -10.452936982639239 -3.452710921394538 -13.336842352076289 0 0 0
1393 1 -5.33354369694983 -4.17133123394262 -13.157864046236122 0 0 0
360 1 8.606998482676119 -5.686268842922787 -14.261028170534225 0 0 0
727 1 15.330910042079212 -4.892554487183699 -14.233030401506493 -1 0 0
400 1 -9.499015388011156 -2.261709979440723 -13.379576276433975 0 0 0
687 1 -6.813512474927786 -4.344293407211574 -15.117809993024586 0 0 0
846 1 -17.05704577394263 -1.5781580182581918 -14.392550529954878 0 0 0
686 1 -16.014743826616197 -3.344144964388654 -14.691005788661549 0 0 0
674 1 -8.563194081162735 -1.9709032903588595 -14.30643111018621 0 0 0
320 1 18.833491535383853 0.17909118522406878 -14.343896669683588 0 0 0
38 1 -12.181897869277693 1.0567218468678266 -13.429654041875724 0 0 0
314 1 11.022589370889436 -0.19853557277202646 -13.22024908525823 0 0 0
63 1 12.243308470096233 0.5958544691520478 -12.715583685539668 0 0 0
713 1 13.319153608737553 1.056862617951622 -12.198910434032054 0 0 0
983 1 -15.301017703055424 1.1958128920063578 -15.392067346340157 0 0 0
661 1 2.4634643809337256 4.019928558535476 -15.261033621902703 0 0 0
457 1 4.2726915207535585 0.8368529593219486 -12.530729603645973 0 0 0
418 1 5.739788412422736 2.2129994127735673 -13.095899336005406 0 0 0
769 1 6.1884258757579795 2.874050511326455 -13.955000104200327 0 0 0
1364 1 8.902460484836187 2.60795882726982 -12.80507395965127 0 0 0
804 1 13.994040332951641 0.38788221837636855 -14.323000782677946 0 0 0
742 1 -17.8650287164321 2.491452887809062 -15.283751839096585 1 0 0
306 1 8.378698548641635 4.045225482953713 -12.4875494515196 0 0 0
140 1 -10.526023029919676 4.96934966999316 -14.247257503089557 0 0 0
1497 1 -5.3325875656939035 5.534361806701102 -13.312778300578698 0 0 0
358 1 -16.351426539602212 5.716222158812157 -12.810853268536192 0 0 0
1231 1 15.073484704877304 7.237442504559846 -14.276198161698689 0 0 0
1434 1 18.547932932368916 6.445676335304575 -13.635425082955136 -1 0 0
645 1 -19.950872464018442 5.6691690455184665 -12.984246212909577 0 0 0
1134 1 -5.61576628282725 9.077315209632497 -13.933521596970593 0 0 0
973 1 4.091055025164166 8.33337598068447 -12.979711575179888 0 0 0
178 1 -10.30186568765336 8.970784318026942 -14.56413599836135 0 0 0
718 1 -7.290192672029059 10.457026186817885 -13.76635271978701 0 0 0
1572 2 0.8495134905936715 11.426588655030985 -13.765691311970535 0 0 0
1522 2 15.38011474659961 11.068899542041185 -15.108741565632933 0 0 0
1157 1 19.913423386923057 11.337683428876655 -15.155809257628425 -1 0 0
30 1 12.131493715693066 12.896214580501532 -13.811030863224413 0 0 0
967 1 10.539559386206372 12.423832963600812 -13.729261973092656 0 0 0
625 1 -12.594977910505909 14.280943655022206 -14.619979089562161 0 0 0
1034 1 -14.102425391307191 17.551426629318414 -11.94422853586926 0 0 0
106 1 14.896453732041818 17.412548299072434 -14.797301133929272 0 0 0
875 1 17.858363359024317 16.037892457011324 -13.992884221545381 0 0 0
485 1 -10.876720594320549 18.3177303420627 -13.315403960476077 0 0 0
1116 1 -8.334489211339838 -19.802765497468613 -12.442445183661537 0 0 0
657 1 -16.59511102649403 18.890039713068216 -12.02892683873698 0 -1 0
665 1 16.26141754313794 19.810594859071276 -9.733797449388168 0 -1 0
1144 1 -17.84104966696534 -15.897287854974875 -11.762841146488876 0 1 0
486 1 0.6160733165687994 -18.77798555839271 -12.461189022600914 0 0 1
232 1 -7.822439209552325 -15.97732189730593 -10.750215214059164 0 0 0
430 1 -7.29537245956977 -15.418990117194854 -11.444834211739783 0 0 0
1250 1 -6.42966400388866 -13.864340510240837 -13.211335329827124 0 0 0
131 1 10.799972268883433 -14.1827034279395 -13.280239501255362 0 0 0
1550 2 15.072233324521571 -15.990174438769156 -12.067645324268703 0 0 0
1486 1 17.48031153262489 -14.914358404515374 -11.830145971252533 -1 0 0
373 1 10.94967297388287 -12.934327013101854 -12.751018675678077 0 0 0
367 1 -11.072439151175898 -11.637304867631519 -10.618692454672292 0 0 0
304 1 -11.639002363364767 -10.586852351407206 -11.503314263189935 0 0 0
668 1 14.818159511739958 -10.867848984761654 -12.12280152326282 0 0 0
648 1 -14.98231263253772 -9.693427623782409 -11.168486020253168 0 0 0
428 1 -15.863609263357278 -8.120167702404455 -12.80213489601744 0 0 0
1050 1 -0.643469419921405 -9.502981435132057 -10.761928847634596 0 0 0
733 1 15.663000853111557 -8.685994867617689 -12.877250029946188 0 0 0
1146 1 16.85430504043863 -8.715348674030958 -11.917623373877788 0 0 0
1181 1 -0.0839576911594839 -5.958133636456162 -12.369246574840707 0 0 0
1160 1 -19.165707245909868 -4.886458640727009 -12.410515672373021 1 0 0
1577 2 -17.715108916584832 -6.383596924573837 -11.90797559132172 0 0 0
228 1 7.898251680788085 -2.044472558840011 -10.303867462912345 0 0 0
862 1 -8.343821071368954 -1.8968337525958214 -12.31161829400051 0 0 0
1249 1 -4.482184446245659 -2.99440997490951 -12.558506212771373 0 0 0
1405 1 -0.9731294871695372 -0.5398792456614554 -13.993285641961988 0 0 0
1028 1 6.631674837508599 -1.1867127719920305 -14.990275102828015 0 0 0
1312 1 7.646637367223171 -1.5928580848408802 -12.965111276583459 0 0 0
476 1 -19.158779036437394 1.759527608860235 -10.567268339792115 1 0 0
1555 2 -0.6565031034263836 0.0829791138983187 -12.20325103029286 0 0 0
1119 1 7.759656384835176 2.0704371025903345 -11.298085698865707 0 0 0
109 1 13.132586331199004 1.264335985090424 -11.055506225356037 0 0 0
43 1 19.00339848374639 3.16179676472962 -11.79388792882144 -1 0 0
556 1 -15.727466406475388 1.5228011934642238 -12.015862116412318 0 0 0
746 1 -1.286850934430438 2.3720809947582553 -11.574501887530728 0 0 0
1402 1 7.523771743989818 2.4361409552350892 -12.309090439641631 0 0 0
1423 1 11.34907589379584 5.028216104502916 -11.729839752542665 0 0 0
1382 1 -15.455624548561694 3.8850799530093334 -10.931677109977585 0 0 0
1078 1 -0.33306164013625716 4.766243342333644 -11.495665541920937 0 0 0
336 1 13.454768772269853 2.152077857029488 -10.138263324666731 0 0 0
1200 1 -15.96908882757565 5.98759247466496 -10.484619488556216 0 0 0
1054 1 -11.397838103612356 7.089463786538851 -11.612171894030809 0 0 0
785 1 15.783472617061863 6.45221967705209 -13.863382657834553 0 0 0
912 1 -13.781726341650579 9.036129736490595 -11.634087298752066 0 0 0
112 1 -8.15753342393701 11.063646955163012 -11.130274746547896 0 0 0
444 1 -10.129364509977117 9.873440048426811 -10.858503252176233 0 0 0
291 1 -4.5628716768026525 10.429558740732336 -13.086612355520323 0 0 0
264 1 -13.411692544245708 12.208386986366039 -10.846608295606524 0 0 0
809 1 -8.628792955576142 11.711567535443791 -13.012519878057965 0 0 0
254 1 -3.964076338573659 14.144279048780458 -11.565599168411644 0 0 0
730 1 11.08774623006544 13.544001343373058 -11.260935943079195 0 0 0
588 1 1.070734113913927 16.25599990649476 -14.554263822239275 0 0 0
907 1 4.828873701647706 15.268349592394102 -10.129056060495897 0 0 0
118 1 9.590766056299277 15.212835332289128 -13.555422907388312 0 0 0
890 1 13.49733867834845 18.22632390636792 -13.794948221678373 0 0 0
1107 1 16.83281399859429 16.679304684936145 -13.471167825479851 0 0 0
508 1 -5.8543493419496695 18.033509069859544 -11.748838918628541 0 0 0
419 1 15.628740161493536 19.489531676386775 -10.752579860694658 0 0 0
1370 1 -16.04126446005925 -19.307211726133797 -8.79166876807111 0 1 0
1051 1 -12.067906262752807 -19.708336361923962 -10.517466331911978 0 0 0
1055 1 -9.862264655647992 -17.914982203813334 -10.702241043998415 0 0 0
1360 1 18.868630130673345 19.813494800899353 -10.340088536137081 0 0 0
923 1 -9.14252512345625 -15.075691073912635 -10.101835521688578 0 0 0
856 1 -10.314932750558569 -13.85662659088538 -11.25280549155375 0 0 0
296 1 -4.030621938270461 -15.317431065207751 -11.433259608653419 0 0 0
1596 2 3.6706317985260974 -15.045830987972657 -10.23343319303746 0 0 0
343 1 -12.804656400289684 -14.499882937249636 -9.997908751978288 0 0 0
927 1 -14.845971517483216 -12.211222140656671 -9.675477506504368 0 0 0
826 1 6.983937462776324 -11.192307628367892 -9.49512625723107 0 0 0
113 1 -16.6381660830715 -7.589300094183666 -9.56858511915723 0 0 0
642 1 -19.87706959896268 -7.980340229768574 -11.101100712867366 1 0 0
1303 1 -10.379056983640565 -8.384521137604452 -11.228683137406362 1 0 0
1127 1 -13.535221824375924 -3.9866024802307236 -11.760080362808926 0 0 0
981 1 -9.544273188486509 -3.694971539242145 -8.616162820398122 0 0 0
1455 1 15.307679367119034 -5.982635478383374 -10.045790699920186 0 0 0
797 1 16.988515770095432 -7.121586565814122 -10.71169898028184 -1 0 0
576 1 -13.853407323406618 -3.302084185332888 -10.543985162400745 0 0 0
916 1 -5.5844566962676545 -2.792489661712557 -7.895177862060257 0 0 0
1575 2 10.95060671705017 -2.6974012950676083 -10.904954607180752 0 0 0
524 1 8.660671181412278 -1.146973791593885 -11.340866408620906 0 0 0
1346 1 9.282792551133955 -0.1828797086791306 -10.237310794926 0 0 0
1554 2 17.52021318209202 4.250783189238522 -12.302271048411455 -1 0 0
545 1 -3.007758652723779 4.389464270399978 -10.492136055893363 0 0 0
1376 1 -10.499847846236898 7.434512231064795 -11.257975364840336 0 0 0
509 1 -16.355007596034895 6.5745109624039495 -11.640840426792025 0 0 0
766 1 -15.27456408917266 7.642437902841223 -11.637208200502732 0 0 0
1520 2 -11.826277912206756 9.285138951248937 -11.060264081667041 0 0 0
969 1 6.687192285975904 9.572995696653413 -12.301232135725986 0 0 0
468 1 19.132074962832505 9.492907339436904 -10.639998799257448 -1 0 0
1309 1 -2.1574154095333697 12.00426716420199 -10.75298384474474 0 0 0
1474 1 -1.9153740840601927 11.401532726087273 -12.65277998370513 0 0 0
472 1 12.079500264943224 12.35741082128648 -11.608787974382858 0 0 0
655 1 -4.440030453156038 13.338896336515397 -11.948611900406318 0 0 0
1396 1 4.823884345170467 11.975276139563126 -10.267174227061131 0 0 0
243 1 -2.8222082845713374 14.402405930450692 -10.76666647009949 0 0 0
1506 2 -1.1414091980352 15.516145872172297 -12.035932870114532 0 -1 0
1102 1 -10.257318446643824 15.682047772553387 -9.450988323868078 0 0 0
1398 1 -4.9794465103648955 16.81099148854986 -9.51769819544793 0 0 0
554 1 -17.110540265732908 16.442670250037835 -12.548591712754526 0 0 0
24 1 -14.57627926243199 16.898380377004365 -11.271269865726424 0 0 0
1467 1 -13.805788462584333 18.594930961296384 -10.497742739328167 0 0 0
206 1 8.597269458103133 16.835156148791782 -12.281772229582737 0 0 0
162 1 -3.886063759492218 -17.9830943660673 -8.699997103557605 0 0 0
555 1 -16.997182298003526 -16.892155578937345 -8.854079850015369 0 0 0
589 1 19.796397579167227 -14.712238822966196 -11.356197379206728 -1 0 0
790 1 -16.714573321558486 -15.296691225095762 -10.858454086353289 0 0 0
672 1 -9.099833000576321 -18.410652762820096 -9.61095178330488 0 0 0
422 1 19.15830497547668 -16.869552543149627 -6.714750342635504 0 0 0
22 1 -4.375184644198831 -12.469186929350336 -10.176641528288537 0 0 0
393 1 11.825401533629833 -11.229741507073898 -8.211542042615214 0 0 0
1233 1 -19.461061222750384 -12.571777706464966 -8.83144604233422 0 0 0
676 1 17.18510045862141 -11.115242882117519 -8.928617551712858 -1 0 0
546 1 -8.05691107228036 -9.2688464607333 -8.259577172736513 0 0 0
620 1 -1.7531702613673998 -10.789646532599319 -9.721167215747954 0 0 0
842 1 14.360254544950708 -8.106022584961456 -9.50423348289962 -1 0 0
679 1 5.863066680453727 -7.7549599393718065 -9.251661555595906 0 0 0
1141 1 18.934782884029328 -4.920540845126234 -8.964318493874336 0 0 0
104 1 -11.649148167553783 -5.82200161721346 -9.089074858411017 0 0 0
699 1 -2.0106067254192497 -6.678904238401051 -8.828224994486863 0 0 0
1295 1 4.891203464827719 -4.713638098659408 -10.43928959240122 0 0 0
504 1 15.205674265242902 -6.046949793978683 -8.396243519047102 0 0 0
799 1 -15.144053114767406 -3.1745760982801765 -8.286618174521191 0 0 0
1194 1 -7.404767494970742 -3.141620988253853 -9.832811756068166 0 0 0
818 1 9.919428377407293 -2.6200517607149663 -8.82140067128705 0 0 0
1581 2 -16.110859786191792 -1.8674015637587098 -9.037607241571305 0 0 0
1220 1 -14.770131806118528 -3.5121274410275314 -9.621772120524543 0 0 0
574 1 11.152236672413432 -2.049488753759882 -9.294578785492352 0 0 0
439 1 -16.896088669185318 1.1938454624917716 -8.61000638383625 0 0 0
1551 2 -1.0485026289793447 -1.1270612615600322 -9.921043358853543 0 0 0
338 1 9.50463057050072 -1.0592621730279825 -7.8019905029900185 0 0 0
549 1 -0.6318599658570647 0.9955922078547466 -10.555529999757718 0 0 0
1025 1 19.991513572931247 2.9977192331626132 -11.00808749808482 -1 0 0
1354 1 -6.892508504800469 2.869436684494973 -9.23888478913423 0 0 0
1049 1 -6.399889825006088 1.6857116232274414 -9.808839632567928 0 0 0
1172 1 -19.41707804353098 5.770788137141421 -9.664184918658636 0 0 0
139 1 0.04303229026066594 4.319254688561569 -8.200211530491906 0 0 0
1415 1 -13.133565859603333 7.171622792850922 -8.640353976258787 0 0 0
985 1 -12.823848820022066 2.9479633160858802 -10.674606045767874 0 0 0
611 1 -7.311506603225266 6.257998198681275 -11.085046538757371 0 0 0
1067 1 -2.609547049689551 5.635086200091646 -10.222599128557412 0 0 0
29 1 4.595362274997467 6.493728067722829 -10.269231467168314 0 0 0
701 1 -2.3977213349122692 6.712557645093308 -8.773260433264214 0 0 0
1445 1 4.485513869594596 6.947506205130725 -8.715039480238554 0 0 0
832 1 8.304945715185998 6.673569083628482 -8.207013346212502 0 0 0
751 1 10.350756518330272 4.785163729666573 -9.323703362253312 -1 0 0
1333 1 -8.036662436672113 6.044821559609806 -10.135471005762044 0 0 0
1027 1 -18.991879465784425 9.066588714627363 -9.45552875476498 0 0 0
612 1 -16.8190747007859 9.143234381232412 -9.277045322078065 1 0 0
1138 1 -15.298178987197225 10.840854094679825 -8.961273274043272 0 0 0
1349 1 4.059549824821861 10.837107510199433 -9.611201858504128 0 0 0
136 1 12.061170194002667 10.116170480100646 -9.903449503578754 0 0 0
37 1 19.19464220298191 11.071478954419193 -8.37361145695924 0 0 0
167 1 18.710254432450718 9.427224062105262 -8.44541357812765 -1 0 0
1543 2 -3.2522707691636783 10.628850000101547 -8.797598638877039 0 0 0
682 1 7.303044674311845 11.712478079805852 -12.872766644437021 0 0 0