ITEM: TIMESTEP
0
ITEM: NUMBER OF ATOMS
255
ITEM: BOX BOUNDS pp pp pp
-1.0000000000000000e+01 1.0000000000000000e+01
-1.0000000000000000e+01 1.0000000000000000e+01
-1.0000000000000000e+01 1.0000000000000000e+01
ITEM: ATOMS id type xs ys zs
452 2 0.234066 0.0124574 0.323245
417 2 0.247127 0.102051 0.169828
133 1 0.225663 0.284922 0.276891
134 2 0.225349 0.32639 0.252999
135 2 0.240358 0.252659 0.244739
285 2 0.0785123 0.477478 0.449521
284 2 0.107727 0.407801 0.444894
283 1 0.12014 0.453886 0.448452
273 2 0.198418 0.460326 0.218832
272 2 0.146741 0.480648 0.270274
271 1 0.193629 0.472767 0.264798
267 2 0.130073 0.037642 0.491817
266 2 0.198911 0.0070422 0.49922
189 2 0.0802177 0.219022 0.377171
188 2 0.0974628 0.150455 0.350136
187 1 0.0651093 0.185535 0.346497
4 6 0.192474 0.65942 0.425875
5 7 0.231648 0.666455 0.453287
2 5 0.11799 0.7106 0.432082
1 3 0.149492 0.673411 0.458997
3 5 0.118422 0.628987 0.472746
753 2 0.0134508 0.937471 0.436126
300 2 0.172154 0.562083 0.0858472
299 2 0.163198 0.625488 0.126213
298 1 0.162581 0.577785 0.130033
265 1 0.152425 0.995746 0.497794
201 2 0.139916 0.782389 0.350006
200 2 0.122633 0.799876 0.278415
199 1 0.10958 0.771453 0.314641
860 2 0.0243132 0.223128 0.546951
468 2 0.244903 0.468798 0.90051
390 2 0.244645 0.350278 0.526295
388 1 0.237856 0.304924 0.539988
303 2 0.143089 0.258835 0.740613
302 2 0.170997 0.202147 0.698932
301 1 0.136303 0.212618 0.730192
225 2 0.193819 0.0273528 0.623799
210 2 0.0573726 0.452401 0.66066
209 2 0.127375 0.427584 0.646049
208 1 0.0878956 0.444221 0.624715
204 2 0.217513 0.231108 0.845417
202 1 0.216902 0.225587 0.892954
11 5 0.245866 0.702378 0.614567
12 5 0.247561 0.784399 0.578153
8 5 0.163476 0.668481 0.56859
6 3 0.174972 0.702482 0.524496
9 4 0.231268 0.722332 0.518856
7 5 0.140366 0.748665 0.530564
480 2 0.233517 0.884434 0.700198
456 2 0.230461 0.969843 0.830005
454 1 0.243223 0.923901 0.834129
255 2 0.191878 0.661756 0.916166
254 2 0.232401 0.598598 0.926098
253 1 0.188078 0.616173 0.930247
223 1 0.225268 0.991322 0.621966
103 1 0.0888201 0.667833 0.717249
104 2 0.121807 0.69235 0.741771
105 2 0.0631308 0.70141 0.694817
29 5 0.449626 0.463966 0.492971
35 5 0.498007 0.458233 0.350133
39 5 0.471053 0.314776 0.402664
470 2 0.340692 0.193141 0.0140639
469 1 0.296261 0.205471 0.00124352
451 1 0.281503 0.00671469 0.325956
444 2 0.402556 0.370519 0.211802
443 2 0.410092 0.442101 0.235231
442 1 0.388353 0.400844 0.245996
432 2 0.428263 0.470277 0.128704
415 1 0.287491 0.0764451 0.167437
416 2 0.274342 0.0351945 0.147039
22 5 0.466856 0.682941 0.460926
20 3 0.433528 0.639435 0.477506
30 4 0.497374 0.525359 0.456093
19 5 0.345435 0.697262 0.434943
21 5 0.431168 0.61321 0.425496
17 3 0.360766 0.673035 0.483416
677 2 0.497262 0.767541 0.29942
676 1 0.484234 0.75601 0.254835
474 2 0.283558 0.721045 0.0994152
473 2 0.352279 0.724208 0.0678386
472 1 0.310861 0.700296 0.0660299
453 2 0.28856 0.984815 0.367922
431 2 0.450868 0.539765 0.108954
430 1 0.454689 0.507205 0.143823
423 2 0.376592 0.869422 0.175062
422 2 0.352293 0.919647 0.226216
421 1 0.356539 0.912695 0.179055
389 2 0.273669 0.296108 0.570488
224 2 0.262952 0.00945984 0.598695
203 2 0.263014 0.221752 0.905182
471 2 0.297875 0.253082 0.996642
467 2 0.319904 0.459138 0.903868
466 1 0.280815 0.444153 0.880672
391 1 0.324364 0.162579 0.603715
392 2 0.303653 0.139886 0.640411
393 2 0.371059 0.153347 0.60871
447 2 0.271708 0.205223 0.739477
446 2 0.331745 0.159139 0.740723
445 1 0.283887 0.158947 0.740346
26 5 0.380167 0.547443 0.537658
23 4 0.453972 0.617484 0.52849
24 3 0.433298 0.565687 0.538235
18 5 0.325292 0.631902 0.501999
13 3 0.340157 0.726692 0.562476
14 5 0.36126 0.776806 0.578084
16 4 0.361142 0.724107 0.509895
27 3 0.479769 0.510674 0.508643
25 5 0.445703 0.570831 0.595409
10 3 0.261128 0.731291 0.566672
15 5 0.352681 0.690872 0.605539
663 2 0.476701 0.766941 0.838292
479 2 0.291566 0.856561 0.739988
478 1 0.277593 0.866439 0.695291
455 2 0.290809 0.924161 0.829025
435 2 0.282776 0.629381 0.718514
434 2 0.344147 0.611433 0.678002
433 1 0.303512 0.593012 0.695322
48 3 0.738724 0.305942 0.415705
51 4 0.743598 0.327121 0.469551
50 5 0.746924 0.34004 0.369384
43 5 0.582534 0.283145 0.326457
38 3 0.517266 0.345254 0.383749
42 5 0.559733 0.244771 0.40117
47 5 0.671966 0.242736 0.369327
44 4 0.626039 0.319011 0.400327
45 3 0.667607 0.279786 0.415344
41 3 0.578508 0.295111 0.383839
37 4 0.515392 0.392397 0.415114
46 5 0.65787 0.242585 0.457001
40 5 0.512297 0.35509 0.327133
56 5 0.725552 0.469656 0.492593
34 3 0.536081 0.44261 0.388663
36 5 0.58484 0.442518 0.354522
33 5 0.588593 0.48468 0.476267
31 3 0.547442 0.499518 0.437812
708 2 0.598293 0.414116 0.253945
707 2 0.608478 0.472804 0.207237
706 1 0.616656 0.458274 0.252098
646 1 0.571188 0.0337202 0.327463
648 2 0.609899 0.0593909 0.31593
651 2 0.502465 0.183336 0.0388111
650 2 0.557358 0.183794 0.0909295
649 1 0.53008 0.154272 0.0649503
32 5 0.571656 0.544852 0.410272
615 2 0.550404 0.560187 0.0441516
693 2 0.692237 0.696283 0.213354
692 2 0.642272 0.728369 0.260298
691 1 0.657468 0.729134 0.214921
684 2 0.645797 0.917736 0.227073
683 2 0.609237 0.961381 0.177192
682 1 0.616496 0.915648 0.189289
678 2 0.525512 0.751797 0.230982
647 2 0.586397 0.988342 0.327305
657 2 0.674201 0.600696 0.114818
656 2 0.627215 0.57437 0.168007
655 1 0.627887 0.598505 0.126684
65 6 0.645885 0.350489 0.660574
64 5 0.570111 0.377774 0.620331
59 3 0.658508 0.404744 0.565471
58 4 0.717684 0.40437 0.571697
62 3 0.623557 0.357875 0.610197
63 5 0.624795 0.307384 0.582535
66 7 0.693281 0.355685 0.656138
60 5 0.641257 0.460307 0.56858
28 5 0.50861 0.489318 0.555966
61 5 0.638468 0.380349 0.51535
55 3 0.745915 0.428685 0.52686
762 2 0.734238 0.388818 0.901371
760 1 0.738476 0.341389 0.896563
714 2 0.506155 0.13012 0.68585
713 2 0.546113 0.113805 0.748035
712 1 0.531203 0.150503 0.721173
709 1 0.69073 0.491245 0.966355
718 1 0.652132 0.034135 0.714837
719 2 0.678125 0.0618104 0.743975
720 2 0.633755 0.0644736 0.682705
711 2 0.65682 0.524912 0.969046
710 2 0.731852 0.515701 0.965161
705 2 0.596668 0.591996 0.651036
704 2 0.627772 0.651446 0.615994
703 1 0.597769 0.614823 0.608985
613 1 0.558925 0.555933 0.997249
614 2 0.549719 0.50999 0.987499
690 2 0.647561 0.65531 0.849831
689 2 0.681428 0.592132 0.825514
688 1 0.638339 0.612112 0.831408
662 2 0.538674 0.762297 0.881507
661 1 0.510913 0.793696 0.858398
49 5 0.772481 0.258771 0.409492
53 5 0.808599 0.398357 0.439422
52 3 0.780968 0.37343 0.482969
948 2 0.924157 0.408511 0.262806
947 2 0.90326 0.406768 0.335538
946 1 0.926688 0.433539 0.303522
920 2 0.968243 0.458246 0.0587875
919 1 0.923262 0.473727 0.0535346
897 2 0.933104 0.134279 0.25235
896 2 0.911528 0.0620633 0.24534
895 1 0.930123 0.0985786 0.220613
953 2 0.81879 0.764274 0.149111
952 1 0.846836 0.732024 0.127573
942 2 0.969694 0.807356 0.218399
941 2 0.931325 0.796712 0.154023
940 1 0.925269 0.80532 0.200712
933 2 0.889941 0.832851 0.293616
751 1 0.973889 0.95035 0.41247
752 2 0.974278 0.998195 0.413591
932 2 0.954557 0.847136 0.330364
931 1 0.920569 0.813853 0.325105
954 2 0.816326 0.701202 0.107332
924 2 0.797425 0.88872 0.365306
923 2 0.827243 0.865357 0.430841
922 1 0.839104 0.877933 0.386212
921 2 0.92348 0.517792 0.0722126
900 2 0.957921 0.612773 0.476654
899 2 0.945951 0.541615 0.453783
898 1 0.978421 0.57676 0.452708
864 2 0.94043 0.794989 0.495228
863 2 0.988582 0.746992 0.461951
862 1 0.957065 0.750188 0.497826
57 5 0.788272 0.458224 0.555865
54 5 0.821427 0.356275 0.514875
939 2 0.933387 0.223965 0.865833
938 2 0.992994 0.177309 0.865894
937 1 0.945135 0.177569 0.865789
936 2 0.823952 0.35716 0.75007
935 2 0.805212 0.376563 0.679345
934 1 0.791143 0.349346 0.716113
761 2 0.78498 0.334332 0.887719
891 2 0.79574 0.19237 0.801709
890 2 0.85819 0.150761 0.791786
889 1 0.81043 0.148415 0.789763
888 2 0.89567 0.132972 0.971944
887 2 0.965791 0.104552 0.969719
886 1 0.920435 0.0926926 0.979349
882 2 0.790172 0.138385 0.55689
881 2 0.775153 0.0767628 0.598204
880 1 0.77372 0.0935761 0.553417
861 2 0.984269 0.286781 0.538317
859 1 0.981646 0.239341 0.532556
945 2 0.869743 0.928306 0.847249
944 2 0.884903 0.899322 0.915512
943 1 0.898875 0.933343 0.884886
909 2 0.883171 0.603793 0.869237
908 2 0.834616 0.550286 0.891801
907 1 0.851961 0.593208 0.903943
894 2 0.767404 0.728247 0.950876
893 2 0.837962 0.754137 0.941878
892 1 0.806082 0.742038 0.975461
852 2 0.802108 0.846743 0.75539
851 2 0.783638 0.809498 0.818647
850 1 0.814295 0.841966 0.801425
805 1 0.902897 0.737608 0.765045
806 2 0.943625 0.732884 0.740356
807 2 0.876762 0.768352 0.73931
ITEM: TIMESTEP
1000
ITEM: NUMBER OF ATOMS
255
ITEM: BOX BOUNDS pp pp pp
-1.0000000000000000e+01 1.0000000000000000e+01
-1.0000000000000000e+01 1.0000000000000000e+01
-1.0000000000000000e+01 1.0000000000000000e+01
ITEM: ATOMS id type xs ys zs
203 2 0.245372 0.222211 0.921788
417 2 0.243687 0.057412 0.159389
133 1 0.220063 0.287933 0.277456
134 2 0.211275 0.334793 0.273282
105 2 0.0742197 0.677362 0.671127
285 2 0.0854362 0.494326 0.450794
284 2 0.0926308 0.419653 0.460893
283 1 0.117531 0.458853 0.449317
273 2 0.18259 0.499749 0.224113
272 2 0.18081 0.489387 0.299074
271 1 0.191519 0.467198 0.258043
267 2 0.152403 0.0438067 0.490271
266 2 0.175893 0.987914 0.535591
189 2 0.0542512 0.215058 0.376836
188 2 0.105465 0.202582 0.322511
187 1 0.0675027 0.182876 0.343984
4 6 0.188915 0.669019 0.421165
5 7 0.227527 0.686905 0.444617
2 5 0.108769 0.713223 0.4403
1 3 0.146959 0.675589 0.459634
3 5 0.120749 0.625547 0.467379
753 2 0.0270346 0.953077 0.430199
300 2 0.176039 0.570674 0.0872928
299 2 0.154114 0.618618 0.14161
298 1 0.163513 0.572405 0.133452
265 1 0.151291 0.996234 0.49539
201 2 0.137162 0.733973 0.337862
200 2 0.119914 0.807624 0.335077
199 1 0.115715 0.766811 0.310435
860 2 0.0249334 0.22521 0.545431
468 2 0.246587 0.479832 0.891393
103 1 0.0871358 0.671444 0.71683
388 1 0.233413 0.301546 0.545824
303 2 0.151453 0.24587 0.765582
302 2 0.14931 0.238972 0.690232
301 1 0.145653 0.213644 0.730675
225 2 0.204247 0.0129182 0.655901
210 2 0.084269 0.481084 0.648397
209 2 0.122307 0.442419 0.595597
208 1 0.0856394 0.438739 0.626134
204 2 0.190901 0.183164 0.886603
202 1 0.215958 0.223862 0.884069
11 5 0.244207 0.715294 0.619533
223 1 0.228256 0.992065 0.620134
8 5 0.170292 0.65665 0.563834
6 3 0.176052 0.70032 0.527072
9 4 0.231275 0.718628 0.520237
7 5 0.1415 0.742388 0.545094
104 2 0.123899 0.701482 0.722895
456 2 0.217077 0.950747 0.849209
454 1 0.24779 0.922033 0.826345
255 2 0.165807 0.647017 0.91712
254 2 0.228466 0.639921 0.958992
253 1 0.195082 0.614307 0.936188
447 2 0.238197 0.177229 0.741563
29 5 0.466706 0.460408 0.521555
433 1 0.30384 0.594873 0.694335
39 5 0.469573 0.324557 0.404644
470 2 0.30497 0.173717 0.0359707
469 1 0.297634 0.204506 7.08031e-05
451 1 0.283179 0.9963 0.321755
444 2 0.414903 0.388356 0.200856
443 2 0.394873 0.44509 0.246789
442 1 0.393943 0.397395 0.242922
432 2 0.412099 0.505052 0.122577
415 1 0.2872 0.0771657 0.162035
416 2 0.317145 0.0399237 0.164661
22 5 0.468784 0.687287 0.475448
20 3 0.430474 0.645147 0.479239
30 4 0.497511 0.518197 0.456396
19 5 0.350404 0.695203 0.425983
21 5 0.435205 0.61592 0.430164
17 3 0.360139 0.677334 0.479376
677 2 0.487981 0.769805 0.294788
676 1 0.488514 0.757218 0.248616
474 2 0.297985 0.713529 0.107873
473 2 0.347974 0.723953 0.0519963
472 1 0.308574 0.699301 0.0634201
453 2 0.269629 0.992364 0.367488
431 2 0.467163 0.547746 0.152155
430 1 0.454719 0.502228 0.144167
423 2 0.388779 0.890736 0.195493
422 2 0.334067 0.930642 0.229314
421 1 0.351138 0.918797 0.1862
389 2 0.264127 0.265665 0.553553
224 2 0.265572 0.0209815 0.612267
434 2 0.348789 0.596524 0.67798
471 2 0.307729 0.247383 0.0187842
467 2 0.302755 0.458725 0.845248
466 1 0.280573 0.446588 0.885883
391 1 0.319734 0.160439 0.604057
392 2 0.308165 0.161641 0.650482
393 2 0.367405 0.164652 0.603458
480 2 0.260158 0.904753 0.667443
446 2 0.304634 0.181639 0.777569
445 1 0.283616 0.162335 0.739147
26 5 0.381859 0.54336 0.51204
23 4 0.445596 0.619046 0.529431
24 3 0.431152 0.562434 0.534104
18 5 0.321214 0.636379 0.488833
13 3 0.335289 0.725229 0.562406
14 5 0.360414 0.77043 0.58675
16 4 0.35709 0.72806 0.508215
27 3 0.487182 0.513235 0.513474
25 5 0.425677 0.55723 0.590712
10 3 0.25873 0.737024 0.568441
15 5 0.349271 0.680469 0.595196
663 2 0.499597 0.783835 0.81454
479 2 0.262536 0.884602 0.740368
478 1 0.270958 0.868087 0.696245
455 2 0.289112 0.927505 0.849863
435 2 0.30222 0.628464 0.728387
135 2 0.266703 0.28355 0.267652
452 2 0.274478 0.0420102 0.310553
390 2 0.252962 0.326573 0.510019
12 5 0.250994 0.793581 0.572168
48 3 0.735595 0.313599 0.415887
51 4 0.739658 0.330287 0.47138
50 5 0.737408 0.354102 0.375346
43 5 0.568138 0.25841 0.34403
38 3 0.517576 0.345844 0.382091
42 5 0.554938 0.259408 0.435185
47 5 0.676736 0.24015 0.362749
44 4 0.625562 0.314574 0.39642
45 3 0.668578 0.27625 0.406474
41 3 0.572107 0.291332 0.390789
37 4 0.524973 0.392387 0.416625
46 5 0.661099 0.244353 0.453523
661 1 0.510242 0.791368 0.860589
56 5 0.726096 0.465904 0.494709
34 3 0.542931 0.440662 0.389221
36 5 0.595413 0.433765 0.367306
33 5 0.59314 0.488089 0.473758
31 3 0.549545 0.499499 0.438476
708 2 0.622667 0.422439 0.262625
707 2 0.575551 0.459152 0.216127
706 1 0.617208 0.463829 0.239222
646 1 0.574287 0.0298479 0.324911
648 2 0.616785 0.051727 0.322518
651 2 0.518212 0.161819 0.0194422
650 2 0.574924 0.171147 0.0687015
649 1 0.529389 0.156721 0.0656986
32 5 0.566675 0.54455 0.407752
615 2 0.58699 0.570625 0.0430992
693 2 0.692117 0.722853 0.190275
692 2 0.672198 0.720803 0.263274
691 1 0.654105 0.725599 0.219226
684 2 0.643347 0.889435 0.182682
683 2 0.593342 0.941153 0.159135
682 1 0.613514 0.923267 0.19868
678 2 0.534899 0.756777 0.236833
647 2 0.576351 0.995906 0.291233
657 2 0.646512 0.558163 0.148993
656 2 0.621439 0.629275 0.155643
655 1 0.625447 0.593332 0.124295
65 6 0.646535 0.35478 0.664499
64 5 0.568616 0.366402 0.614913
59 3 0.659148 0.40575 0.566427
58 4 0.717413 0.402943 0.572946
62 3 0.624239 0.354368 0.611838
63 5 0.630515 0.302325 0.589406
66 7 0.693107 0.342898 0.659858
60 5 0.640006 0.457813 0.580655
28 5 0.529508 0.520567 0.551431
61 5 0.638719 0.394243 0.513856
55 3 0.748434 0.425542 0.528789
762 2 0.718437 0.391609 0.911127
760 1 0.739947 0.351451 0.896458
714 2 0.528338 0.143638 0.67369
713 2 0.566467 0.109012 0.72916
712 1 0.531168 0.140375 0.721354
709 1 0.688751 0.48935 0.958188
718 1 0.652182 0.0465575 0.716329
719 2 0.685864 0.0651173 0.744819
720 2 0.670318 0.0504295 0.672208
711 2 0.647611 0.509514 0.972025
710 2 0.722258 0.521727 0.969124
705 2 0.61205 0.611515 0.66018
704 2 0.57236 0.64438 0.604734
703 1 0.604124 0.609553 0.613022
613 1 0.569937 0.553523 0.00177992
614 2 0.534805 0.523709 0.0147208
690 2 0.645536 0.629097 0.873311
689 2 0.646707 0.566147 0.831291
688 1 0.639372 0.613361 0.828534
662 2 0.529075 0.749965 0.87548
35 5 0.508667 0.458807 0.347012
40 5 0.506515 0.351069 0.32608
49 5 0.777389 0.276189 0.40464
53 5 0.808632 0.398796 0.442558
52 3 0.779723 0.370958 0.483587
948 2 0.944875 0.430545 0.263934
947 2 0.926935 0.388894 0.32454
946 1 0.923433 0.433144 0.306643
920 2 0.966925 0.457617 0.0558264
919 1 0.923078 0.476163 0.0509239
897 2 0.966525 0.119824 0.252834
896 2 0.935334 0.0539507 0.232398
895 1 0.930595 0.101293 0.227217
953 2 0.82946 0.77777 0.127605
952 1 0.836346 0.731214 0.118906
942 2 0.979351 0.800401 0.198775
941 2 0.915431 0.767772 0.174705
940 1 0.932079 0.807313 0.195918
933 2 0.927097 0.806065 0.291628
751 1 0.980519 0.950204 0.419306
752 2 0.967606 0.995304 0.40983
932 2 0.896403 0.835239 0.354369
931 1 0.928327 0.802892 0.339367
954 2 0.827804 0.726367 0.0720651
924 2 0.779522 0.899534 0.388088
923 2 0.84154 0.904836 0.431162
922 1 0.82539 0.88604 0.390217
921 2 0.923121 0.514725 0.0792707
900 2 0.972793 0.621808 0.46697
899 2 0.957637 0.566619 0.41743
898 1 0.983479 0.576341 0.456523
864 2 0.960306 0.790146 0.505707
863 2 0.954572 0.759279 0.436829
862 1 0.961176 0.748084 0.48289
57 5 0.791659 0.451006 0.556125
54 5 0.818957 0.34361 0.514863
939 2 0.940633 0.221837 0.877754
938 2 0.973007 0.173477 0.82935
937 1 0.938848 0.176427 0.862742
936 2 0.767163 0.356511 0.75179
935 2 0.783832 0.386706 0.68441
934 1 0.790663 0.347552 0.711071
761 2 0.763932 0.335966 0.93487
891 2 0.795876 0.19242 0.780483
890 2 0.850286 0.153856 0.816289
889 1 0.811846 0.148 0.788386
888 2 0.925232 0.119678 0.938001
887 2 0.95507 0.0633593 0.978839
886 1 0.917661 0.0931624 0.977119
882 2 0.773633 0.138698 0.540912
881 2 0.807129 0.0940254 0.592021
880 1 0.772452 0.0944188 0.559038
861 2 0.975603 0.280537 0.560767
859 1 0.98296 0.243449 0.531425
945 2 0.87076 0.902764 0.855663
944 2 0.873466 0.965142 0.898458
943 1 0.900163 0.928379 0.88341
909 2 0.859955 0.615077 0.861953
908 2 0.869775 0.56237 0.915388
907 1 0.846194 0.602984 0.906169
894 2 0.819921 0.691339 0.956249
893 2 0.843436 0.763286 0.956871
892 1 0.812261 0.733476 0.977611
852 2 0.793477 0.867772 0.766149
851 2 0.782034 0.817961 0.821984
850 1 0.815906 0.845127 0.801852
805 1 0.898851 0.731397 0.771388
806 2 0.943024 0.741981 0.756309
807 2 0.877877 0.773924 0.77788
ITEM: TIMESTEP
2000
ITEM: NUMBER OF ATOMS
255
ITEM: BOX BOUNDS pp pp pp
-9.6461078662531161e+00 9.6461078662531161e+00
-9.6461078662531161e+00 9.6461078662531161e+00
-9.6461078662531161e+00 9.6461078662531161e+00
ITEM: ATOMS id type xs ys zs
859 1 0.0817696 0.366786 0.480931
133 1 0.245296 0.332958 0.354681
451 1 0.16151 0.980194 0.326898
285 2 0.0719502 0.491736 0.38894
284 2 0.135011 0.530679 0.363167
283 1 0.119561 0.500748 0.399595
200 2 0.0251615 0.746018 0.273331
434 2 0.168336 0.593473 0.843814
435 2 0.211237 0.549115 0.795344
267 2 0.179322 0.175422 0.436
752 2 -0.00824855 0.0442317 0.472698
188 2 0.0479983 0.141234 0.436026
187 1 -0.000845178 0.133451 0.439938
4 6 0.206048 0.727779 0.397906
5 7 0.240853 0.715866 0.432155
2 5 0.150062 0.806547 0.400283
1 3 0.167442 0.758715 0.430393
3 5 0.120581 0.724956 0.442853
389 2 0.246704 0.112887 0.562829
300 2 0.0924015 0.54168 0.229908
299 2 0.163373 0.508947 0.236914
298 1 0.126368 0.528474 0.263576
265 1 0.14637 0.138961 0.42919
201 2 0.0318583 0.775578 0.200951
433 1 0.164395 0.558913 0.808435
199 1 -0.000192323 0.752832 0.231232
861 2 0.123547 0.389467 0.466727
860 2 0.0460384 0.40019 0.472626
446 2 0.173376 0.102265 0.75376
388 1 0.237754 0.160522 0.552227
303 2 0.16681 0.18835 0.880111
302 2 0.188627 0.258554 0.907549
301 1 0.149345 0.233667 0.890254
225 2 0.197941 0.0275205 0.664607
210 2 0.102346 0.275885 0.636687
209 2 0.0979531 0.281261 0.714848
208 1 0.114111 0.251733 0.678398
204 2 0.200611 0.0499292 0.879432
202 1 0.2054 0.0969568 0.864365
447 2 0.132601 0.13882 0.697559
105 2 0.0610835 0.752803 0.736932
266 2 0.146847 0.113636 0.471851
103 1 0.0222721 0.733362 0.760959
11 5 0.223658 0.717242 0.606125
223 1 0.235806 0.0074583 0.639601
8 5 0.160952 0.793168 0.536718
6 3 0.204204 0.781313 0.497481
9 4 0.244932 0.739047 0.5131
7 5 0.231291 0.833014 0.486281
104 2 0.0145052 0.689679 0.738754
445 1 0.157747 0.097096 0.706957
479 2 0.203244 0.849788 0.691877
452 2 0.136652 0.0113141 0.297314
480 2 0.144105 0.889018 0.658397
453 2 0.192885 1.00929 0.352005
478 1 0.155172 0.845872 0.680248
390 2 0.194482 0.170292 0.574445
471 2 0.221394 0.187002 0.98674
203 2 0.241817 0.115405 0.892561
920 2 -0.00113744 0.596051 0.992161
923 2 0.00990535 0.903733 0.336928
938 2 -0.000423753 0.188736 0.882483
751 1 0.00122271 -0.00442526 0.474785
13 3 0.329744 0.696506 0.574529
470 2 0.287901 0.146148 -0.00518109
469 1 0.267394 0.182939 0.968599
444 2 0.383362 0.480017 0.164649
443 2 0.444218 0.431618 0.15409
442 1 0.432728 0.477542 0.16894
415 1 0.328875 0.0643146 0.079431
416 2 0.377549 0.0727867 0.0748926
271 1 0.293739 0.476252 0.311679
454 1 0.306838 0.868057 0.700237
467 2 0.251539 0.452807 0.733859
456 2 0.292533 0.913312 0.685783
432 2 0.290397 0.498914 0.209543
14 5 0.343542 0.692291 0.632
20 3 0.464101 0.681641 0.486902
417 2 0.325751 0.0167051 0.0930376
19 5 0.399369 0.772784 0.477511
21 5 0.481611 0.684373 0.430291
17 3 0.392676 0.716625 0.495171
468 2 0.327358 0.445397 0.752675
254 2 0.286682 0.697521 0.104104
474 2 0.370363 0.844522 0.0929582
473 2 0.389522 0.81684 0.0220777
472 1 0.354817 0.813625 0.0573875
24 3 0.442303 0.581333 0.4851
431 2 0.313523 0.544085 0.149691
430 1 0.288676 0.502417 0.160082
423 2 0.421645 0.912886 0.179252
422 2 0.359337 0.879552 0.213371
421 1 0.373926 0.901757 0.17147
18 5 0.354889 0.692125 0.456475
29 5 0.464932 0.475583 0.455396
10 3 0.263975 0.741566 0.569952
224 2 0.276278 0.0275843 0.660058
455 2 0.350295 0.860864 0.677403
466 1 0.293719 0.478647 0.737695
391 1 0.343303 0.0697032 0.706163
392 2 0.345264 0.109104 0.676075
393 2 0.390471 0.0549052 0.710372
25 5 0.404884 0.561489 0.526579
27 3 0.495616 0.523229 0.472909
12 5 0.277463 0.794932 0.592168
663 2 0.427146 0.743056 0.886558
16 4 0.379579 0.723902 0.553839
15 5 0.31709 0.64122 0.557147
26 5 0.410393 0.587472 0.435367
23 4 0.467468 0.628155 0.514027
661 1 0.441968 0.70196 0.910073
272 2 0.33804 0.475012 0.333981
253 1 0.287794 0.653762 0.0807492
662 2 0.486583 0.691999 0.89079
134 2 0.238482 0.374027 0.327692
273 2 0.262922 0.494119 0.346213
255 2 0.302985 0.664582 0.0347738
135 2 0.284474 0.310749 0.333862
683 2 0.518214 0.077635 0.162118
55 3 0.710384 0.384919 0.541258
677 2 0.570359 0.743274 0.208055
676 1 0.567358 0.775614 0.170549
43 5 0.606624 0.245186 0.361092
38 3 0.558406 0.343318 0.388
42 5 0.610395 0.268199 0.454165
47 5 0.736113 0.273165 0.337578
44 4 0.67126 0.315803 0.390839
45 3 0.719501 0.279249 0.394145
41 3 0.617238 0.289541 0.39918
37 4 0.566453 0.395559 0.417894
46 5 0.714185 0.224068 0.415774
56 5 0.680933 0.391244 0.490304
34 3 0.585883 0.442337 0.384257
36 5 0.64195 0.434991 0.366104
33 5 0.61694 0.501795 0.477325
31 3 0.586459 0.510341 0.427145
708 2 0.62418 0.454715 0.191956
707 2 0.551837 0.470544 0.166005
706 1 0.592597 0.444443 0.155097
646 1 0.629754 0.00391017 0.276392
648 2 0.672052 0.998747 0.250978
30 4 0.533678 0.539995 0.428805
650 2 0.533849 0.0868965 0.00238865
649 1 0.529927 0.112329 0.0448078
35 5 0.553881 0.45444 0.335683
40 5 0.544867 0.342842 0.330147
32 5 0.618646 0.549111 0.39593
615 2 0.690156 0.463183 0.971848
651 2 0.518052 0.158374 0.0306525
692 2 0.731365 0.740438 0.238291
691 1 0.7317 0.697513 0.213414
684 2 0.554321 0.0221969 0.119925
712 1 0.508044 0.0660749 0.636391
682 1 0.535536 0.031229 0.164948
678 2 0.614111 0.780707 0.154744
647 2 0.596316 0.0173481 0.242291
657 2 0.615354 0.583202 0.215858
656 2 0.685763 0.606865 0.241159
655 1 0.651679 0.571376 0.247517
613 1 0.735305 0.463095 0.992417
614 2 0.731966 0.430429 0.0296108
65 6 0.644146 0.349829 0.713066
64 5 0.560173 0.390234 0.690987
59 3 0.629893 0.385456 0.603112
58 4 0.678482 0.355515 0.583275
62 3 0.602376 0.354008 0.670823
63 5 0.578523 0.300919 0.660542
66 7 0.682164 0.32173 0.696762
60 5 0.63327 0.444194 0.612911
61 5 0.58675 0.378232 0.562782
39 5 0.510476 0.322228 0.415691
688 1 0.533117 0.632129 0.810168
761 2 0.724756 0.442583 0.692795
714 2 0.554349 0.0648269 0.654164
713 2 0.513362 0.0786441 0.588691
57 5 0.727845 0.439654 0.556902
709 1 0.736325 0.543439 0.835884
718 1 0.656948 0.0672111 0.675141
719 2 0.692069 0.0593361 0.709289
720 2 0.67762 0.0989906 0.643136
22 5 0.50329 0.713868 0.517514
28 5 0.517671 0.509437 0.526368
711 2 0.742095 0.507478 0.869576
689 2 0.569913 0.61466 0.78184
705 2 0.519303 0.623218 0.575053
704 2 0.535313 0.634554 0.65103
703 1 0.546326 0.605216 0.612566
690 2 0.505301 0.592332 0.820364
882 2 0.736467 0.175937 0.560359
880 1 0.7393 0.128247 0.573747
762 2 0.76091 0.497795 0.735245
710 2 0.731552 0.584929 0.862667
49 5 0.830463 0.281908 0.415945
53 5 0.824131 0.384059 0.527602
52 3 0.779128 0.345505 0.527446
948 2 0.926908 0.48124 0.4414
947 2 0.960725 0.426001 0.397101
946 1 0.971144 0.462393 0.429173
753 2 0.959582 0.975561 0.492871
919 1 0.961608 0.568662 0.974175
760 1 0.752529 0.48347 0.688489
896 2 0.940237 0.0405447 0.39109
895 1 0.909137 0.0354104 0.352775
953 2 0.795906 0.91695 0.0878447
952 1 0.792357 0.869671 0.102461
942 2 0.906854 0.718876 0.216218
941 2 0.861955 0.768074 0.174732
940 1 0.86546 0.720662 0.188924
933 2 0.842729 0.78031 0.298685
898 1 0.835512 0.498323 0.459238
807 2 0.91423 0.720931 0.892586
932 2 0.875938 0.837288 0.341208
931 1 0.83222 0.815862 0.331657
954 2 0.823116 0.844999 0.0723484
924 2 0.944121 0.941476 0.357061
189 2 0.98278 0.133378 0.393104
922 1 0.963909 0.89609 0.353883
921 2 0.94156 0.596787 0.938558
900 2 0.824907 0.529313 0.421972
899 2 0.848451 0.528023 0.496815
805 1 0.949234 0.693699 0.914828
863 2 0.845482 0.742993 0.389074
862 1 0.863494 0.712122 0.423485
50 5 0.789635 0.367789 0.411324
54 5 0.788627 0.309914 0.573559
939 2 0.96092 0.129914 0.847797
881 2 0.745202 0.103671 0.531054
937 1 0.963646 0.179422 0.849561
936 2 0.822871 0.362338 0.70279
851 2 0.820121 0.75501 0.838806
934 1 0.792507 0.32392 0.710763
806 2 0.987366 0.694126 0.88309
891 2 0.792414 0.242229 0.775538
890 2 0.838289 0.190711 0.812939
889 1 0.791017 0.199492 0.8007
888 2 0.877595 0.0372515 0.868878
887 2 0.933528 0.982314 0.872161
886 1 0.926721 0.0310429 0.86578
850 1 0.85753 0.785905 0.828433
935 2 0.788442 0.301882 0.666498
693 2 0.77899 0.691463 0.199681
852 2 0.85274 0.795412 0.779975
897 2 0.933577 0.0548563 0.314225
864 2 0.911616 0.723769 0.426679
945 2 0.87213 0.864312 0.883972
944 2 0.891931 0.89559 0.953161
943 1 0.868079 0.905803 0.910872
909 2 0.831176 0.654746 0.960592
908 2 0.754936 0.649284 0.978342
907 1 0.786036 0.666705 0.943832
894 2 0.943539 0.79778 0.0117516
893 2 0.910712 0.760407 0.0724405
892 1 0.918095 0.805708 0.0536007
51 4 0.778514 0.298624 0.489669
48 3 0.782079 0.312358 0.431425
ITEM: TIMESTEP
3000
ITEM: NUMBER OF ATOMS
255
ITEM: BOX BOUNDS pp pp pp
-9.2657613936435776e+00 9.2657613936435776e+00
-9.2657613936435776e+00 9.2657613936435776e+00
-9.2657613936435776e+00 9.2657613936435776e+00
ITEM: ATOMS id type xs ys zs
859 1 0.163404 0.372502 0.54977
478 1 0.226692 0.778528 0.721734
285 2 0.0750981 0.52206 0.448661
267 2 0.102529 0.303047 0.516899
188 2 0.0925362 0.935667 0.518553
265 1 0.0657307 0.275168 0.493739
861 2 0.146665 0.415441 0.526451
860 2 0.196992 0.351888 0.516383
266 2 0.0901964 0.250786 0.455337
469 1 0.245501 0.0710805 0.937072
453 2 0.0273937 0.00318763 0.477943
9 4 0.217965 0.786512 0.424522
946 1 0.0242223 0.618995 0.467552
284 2 0.0604658 0.444575 0.469996
283 1 0.0961442 0.474895 0.448189
480 2 0.21121 0.818836 0.693392
805 1 0.0120138 0.805235 0.936933
8 5 0.150992 0.848738 0.475775
4 6 0.111402 0.81247 0.338708
5 7 0.134831 0.771917 0.361907
2 5 0.181604 0.881607 0.315209
1 3 0.143702 0.861098 0.35916
3 5 0.104252 0.906008 0.373666
300 2 0.107439 0.41006 0.307956
299 2 0.0962771 0.471382 0.255152
298 1 0.0736168 0.428853 0.273741
806 2 0.0523158 0.795844 0.906025
6 3 0.188798 0.842397 0.427215
7 5 0.230051 0.888625 0.430233
104 2 0.0772187 0.807287 0.797589
203 2 0.100289 0.928604 0.850562
446 2 0.117054 0.0404581 0.752592
388 1 0.138494 0.215894 0.374275
303 2 0.0557305 0.0391124 1.01513
302 2 0.0202011 0.0849733 0.957618
301 1 0.066241 0.0676902 0.97341
225 2 0.202511 0.968628 0.695405
210 2 0.103166 0.202349 0.625784
209 2 0.128555 0.154868 0.564349
208 1 0.13677 0.164825 0.614361
204 2 0.0991039 0.00274477 0.88484
202 1 0.103953 0.978877 0.839293
447 2 0.150837 0.088185 0.695547
223 1 0.231668 0.926847 0.686923
445 1 0.145613 0.0387552 0.709589
11 5 0.206598 0.747518 0.516778
919 1 0.0528938 0.58652 0.964884
434 2 0.0269421 0.42166 0.866514
435 2 0.103972 0.444376 0.851561
433 1 0.0623623 0.456953 0.879458
105 2 0.15888 0.805696 0.79615
103 1 0.118744 0.81451 0.827442
389 2 0.165792 0.257361 0.360023
187 1 0.120956 0.978634 0.514819
189 2 0.133266 0.990298 0.563606
273 2 0.196852 0.516819 0.417704
920 2 0.026158 0.568518 0.00524302
921 2 0.0657354 0.544329 0.937999
467 2 0.176883 0.599748 0.57157
201 2 0.0237385 0.802303 0.241216
466 1 0.192589 0.560231 0.542252
271 1 0.241897 0.523217 0.393254
390 2 0.170831 0.176178 0.367587
470 2 0.194228 0.0771647 0.935707
894 2 -0.00371869 0.849526 0.106442
947 2 0.055749 0.636429 0.504564
10 3 0.248519 0.77034 0.477534
468 2 0.222479 0.531994 0.57351
893 2 0.0143969 0.843042 0.0270505
892 1 0.0143296 0.87659 0.0663227
444 2 0.368505 0.617101 0.171471
443 2 0.335183 0.615212 0.0969109
442 1 0.379128 0.626161 0.121744
415 1 0.409168 0.966884 0.0492593
416 2 0.360501 0.984142 0.0504774
688 1 0.397689 0.588982 0.786845
417 2 0.407028 0.920497 0.0718748
471 2 0.263569 0.116901 0.95262
12 5 0.282131 0.811273 0.509566
135 2 0.302324 0.355004 0.385399
22 5 0.476016 0.714583 0.454731
432 2 0.336738 0.502774 0.261824
20 3 0.451521 0.667606 0.42319
19 5 0.395311 0.734528 0.345144
21 5 0.491769 0.655241 0.377887
17 3 0.380176 0.694594 0.389627
479 2 0.275292 0.769904 0.706521
474 2 0.438648 0.786093 0.108853
473 2 0.472983 0.808304 0.0381346
472 1 0.435265 0.821094 0.0710214
24 3 0.444338 0.565638 0.452898
431 2 0.417044 0.517657 0.263473
430 1 0.371238 0.541114 0.259071
423 2 0.408997 0.849236 0.179999
422 2 0.427408 0.857116 0.259196
421 1 0.40283 0.880789 0.220423
18 5 0.353023 0.647526 0.360085
133 1 0.255135 0.374307 0.393669
26 5 0.428816 0.547921 0.395754
690 2 0.445802 0.579524 0.770613
255 2 0.478924 0.667279 0.137122
712 1 0.43202 0.945889 0.6131
650 2 0.467656 0.0650629 0.0180279
662 2 0.366125 0.594981 0.900028
713 2 0.397208 0.921294 0.583928
714 2 0.427891 0.995453 0.599168
689 2 0.392635 0.640254 0.783194
391 1 0.367422 0.787175 0.709434
392 2 0.372967 0.828686 0.679204
393 2 0.380317 0.803714 0.756636
13 3 0.297982 0.707753 0.456026
454 1 0.429496 0.798192 0.873675
456 2 0.386544 0.82314 0.887835
14 5 0.312542 0.676873 0.507478
224 2 0.271101 0.931656 0.719933
455 2 0.431007 0.756614 0.904281
25 5 0.402322 0.540538 0.490387
134 2 0.259822 0.424743 0.383572
663 2 0.286921 0.611083 0.911891
16 4 0.349348 0.73241 0.429197
15 5 0.262673 0.670173 0.421604
23 4 0.441713 0.626001 0.469142
661 1 0.333916 0.621051 0.930862
272 2 0.268851 0.554918 0.423851