ITEM: TIMESTEP
5000
ITEM: NUMBER OF ATOMS
2016
ITEM: BOX BOUNDS pp pp pp
-1.0000000000000000e+01 3.0000000000000000e+01
-1.0000000000000000e+01 3.0000000000000000e+01
-1.0000000000000000e+01 3.0000000000000000e+01
ITEM: ATOMS id type xs ys zs
171 2 0.0551699 0.234977 0.083516
237 2 0.108237 0.200057 0.0776133
236 2 0.0800673 0.179766 0.0625413
235 1 0.084683 0.200575 0.0734189
170 2 0.0359364 0.246383 0.114051
450 2 0.190794 0.0856411 0.142306
447 2 0.170293 0.182422 0.0909974
446 2 0.166623 0.218077 0.0788461
445 1 0.154239 0.197895 0.0823092
39 5 0.248947 0.171387 0.178918
343 1 0.205467 0.156625 0.107298
344 2 0.219487 0.143845 0.0927116
345 2 0.203789 0.143365 0.127147
449 2 0.223432 0.094692 0.125415
448 1 0.211983 0.0959852 0.146389
292 1 0.241637 0.0984436 0.0829768
294 2 0.229643 0.0925409 0.0631286
360 2 0.237606 0.0729786 0.177013
388 1 0.213837 0.0823371 0.0214231
389 2 0.204253 0.0650088 0.0079874
390 2 0.233554 0.0889129 0.00956348
359 2 0.237958 0.0573597 0.211486
48 3 0.365954 0.129233 0.225506
51 4 0.360957 0.153424 0.240907
43 5 0.281301 0.119829 0.178588
38 3 0.277414 0.173778 0.18027
42 5 0.277642 0.137992 0.220933
47 5 0.339256 0.100911 0.187697
44 4 0.319728 0.141912 0.196786
45 3 0.332579 0.118671 0.20912
41 3 0.290629 0.14093 0.195568
37 4 0.282258 0.196119 0.198491
46 5 0.318737 0.102877 0.228675
40 5 0.286701 0.174318 0.153101
34 3 0.288472 0.221488 0.185552
36 5 0.314071 0.220434 0.172741
33 5 0.309236 0.241312 0.23219
31 3 0.291098 0.249782 0.2117
873 2 0.348551 0.169141 0.175588
687 2 0.292792 0.0469735 0.176004
686 2 0.32138 0.0243044 0.186067
685 1 0.314422 0.0395353 0.168971
678 2 0.320554 0.0671233 0.0789077
677 2 0.298555 0.0483877 0.0544647
676 1 0.303283 0.0703662 0.0626642
35 5 0.269476 0.230088 0.16589
899 2 0.338999 0.047739 0.130506
898 1 0.352181 0.0533399 0.111335
871 1 0.364011 0.178489 0.159895
872 2 0.372922 0.19773 0.170985
293 2 0.26392 0.0906467 0.0790637
900 2 0.36251 0.0741608 0.117032
921 2 0.373355 0.136535 0.137943
49 5 0.374091 0.107177 0.241895
358 1 0.251509 0.0605686 0.192025
29 5 0.250367 0.226963 0.247846
4286 2 0.289957 0.0993769 0.0132324
2736 2 0.373079 0.00901979 0.0957979
919 1 0.381318 0.116053 0.128471
50 5 0.385245 0.131649 0.204488
670 1 0.386731 0.249533 0.195518
1125 2 0.55517 0.234977 0.083516
1190 2 0.580067 0.179766 0.0625413
1189 1 0.584683 0.200575 0.0734189
1124 2 0.535936 0.246383 0.114051
53 5 0.403676 0.174821 0.235871
927 2 0.443449 0.051418 0.247707
920 2 0.40371 0.120933 0.121586
1191 2 0.608237 0.200057 0.0776133
993 5 0.748947 0.171387 0.178918
1297 1 0.705467 0.156625 0.107298
1298 2 0.719487 0.143845 0.0927116
1299 2 0.703789 0.143365 0.127147
1404 2 0.690794 0.0856411 0.142306
1403 2 0.723432 0.094692 0.125415
1402 1 0.711983 0.0959852 0.146389
1401 2 0.670293 0.182422 0.0909974
1400 2 0.666623 0.218077 0.0788461
1399 1 0.654239 0.197895 0.0823092
1246 1 0.741637 0.0984436 0.0829768
1248 2 0.729643 0.0925409 0.0631286
1314 2 0.737606 0.0729786 0.177013
1342 1 0.713837 0.0823371 0.0214231
1343 2 0.704253 0.0650088 0.0079874
1344 2 0.733554 0.0889129 0.00956348
1313 2 0.737958 0.0573597 0.211486
997 5 0.781301 0.119829 0.178588
992 3 0.777414 0.173778 0.18027
996 5 0.777642 0.137992 0.220933
995 3 0.790629 0.14093 0.195568
991 4 0.782258 0.196119 0.198491
994 5 0.786701 0.174318 0.153101
988 3 0.788472 0.221488 0.185552
985 3 0.791098 0.249782 0.2117
1641 2 0.792792 0.0469735 0.176004
1631 2 0.798555 0.0483877 0.0544647
989 5 0.769476 0.230088 0.16589
1247 2 0.76392 0.0906467 0.0790637
1312 1 0.751509 0.0605686 0.192025
983 5 0.750367 0.226963 0.247846
5240 2 0.789957 0.0993769 0.0132324
1002 3 0.865954 0.129233 0.225506
1005 4 0.860957 0.153424 0.240907
1001 5 0.839256 0.100911 0.187697
998 4 0.819728 0.141912 0.196786
999 3 0.832579 0.118671 0.20912
1000 5 0.818737 0.102877 0.228675
990 5 0.814071 0.220434 0.172741
987 5 0.809236 0.241312 0.23219
1827 2 0.848551 0.169141 0.175588
1640 2 0.82138 0.0243044 0.186067
1639 1 0.814422 0.0395353 0.168971
1632 2 0.820554 0.0671233 0.0789077
1630 1 0.803283 0.0703662 0.0626642
1853 2 0.838999 0.047739 0.130506
1852 1 0.852181 0.0533399 0.111335
1825 1 0.864011 0.178489 0.159895
1826 2 0.872922 0.19773 0.170985
1854 2 0.86251 0.0741608 0.117032
1875 2 0.873355 0.136535 0.137943
1003 5 0.874091 0.107177 0.241895
3690 2 0.873079 0.00901979 0.0957979
1007 5 0.903676 0.174821 0.235871
1881 2 0.943449 0.051418 0.247707
1874 2 0.90371 0.120933 0.121586
1873 1 0.881318 0.116053 0.128471
1004 5 0.885245 0.131649 0.204488
1624 1 0.886731 0.249533 0.195518
169 1 0.0393812 0.251373 0.0909023
4 6 0.0573227 0.349571 0.220222
5 7 0.0795104 0.34077 0.224513
2 5 0.0661122 0.395334 0.219502
1 3 0.0570507 0.373668 0.235657
3 5 0.0304713 0.379023 0.244463
222 2 0.0363565 0.428375 0.0602929
221 2 0.00115598 0.419206 0.0498388
220 1 0.0166456 0.417184 0.0679669
204 2 0.0162726 0.372806 0.0806288
203 2 0.0368938 0.343275 0.0922526
202 1 0.0143073 0.350789 0.0897948
1769 2 0.0154962 0.331668 0.205081
1850 2 0.00809298 0.275813 0.0668745
19 5 0.178736 0.346327 0.201976
17 3 0.178467 0.327862 0.22382
440 2 0.178524 0.386784 0.246364
439 1 0.187701 0.408884 0.246477
425 2 0.188453 0.411988 0.200112
424 1 0.190243 0.410922 0.176273
18 5 0.163609 0.305415 0.214099
16 4 0.167401 0.344805 0.244921
22 5 0.230297 0.340548 0.235681
20 3 0.215392 0.317134 0.229055
21 5 0.225597 0.308676 0.203632
426 2 0.201537 0.431125 0.170195
26 5 0.202227 0.260367 0.227024
24 3 0.219097 0.271209 0.247482
495 2 0.244109 0.394132 0.0281247
30 4 0.265138 0.261564 0.217794
32 5 0.304023 0.271697 0.198709
494 2 0.277674 0.398818 0.0112772
27 3 0.254107 0.255119 0.24396
628 1 0.366513 0.41947 0.0722343
493 1 0.254159 0.398495 0.00685034
630 2 0.368092 0.442726 0.0776507
4448 2 0.335789 0.405603 0.0402398
4447 1 0.322769 0.398826 0.0213401
4449 2 0.338056 0.399571 0.0029448
672 2 0.377 0.268088 0.183956
629 2 0.383707 0.409098 0.0852505
826 1 0.37904 0.487238 0.0878825
815 2 0.515496 0.331668 0.205081
896 2 0.508093 0.275813 0.0668745
1123 1 0.539381 0.251373 0.0909023
958 6 0.557323 0.349571 0.220222
959 7 0.57951 0.34077 0.224513
956 5 0.566112 0.395334 0.219502
955 3 0.557051 0.373668 0.235657
957 5 0.530471 0.379023 0.244463
1176 2 0.536356 0.428375 0.0602929
1175 2 0.501156 0.419206 0.0498388
1174 1 0.516646 0.417184 0.0679669
1158 2 0.516273 0.372806 0.0806288
1157 2 0.536894 0.343275 0.0922526
1156 1 0.514307 0.350789 0.0897948
938 2 0.423304 0.255595 0.0501027
939 2 0.456345 0.267754 0.0362132
937 1 0.436486 0.255867 0.0301324
918 2 0.455043 0.440934 0.0376978
916 1 0.467336 0.428981 0.0210053
814 1 0.49422 0.323731 0.197534
895 1 0.492208 0.290597 0.0567889
893 2 0.460391 0.295687 0.213459
892 1 0.44377 0.281923 0.223802
867 2 0.490297 0.389262 0.153219
865 1 0.478074 0.370074 0.145798
855 2 0.432159 0.375318 0.0818661
854 2 0.441144 0.383141 0.11779
853 1 0.428021 0.391057 0.099411
837 2 0.47154 0.454824 0.0879875
836 2 0.439345 0.435021 0.0899256
835 1 0.448169 0.456167 0.0830224
827 2 0.402951 0.486867 0.0887683
816 2 0.487946 0.338965 0.180178
671 2 0.406758 0.258339 0.205213
866 2 0.491008 0.361376 0.12764
894 2 0.45179 0.27856 0.246096
917 2 0.460679 0.439007 0.000321903
897 2 0.496989 0.311992 0.0663834
976 5 0.730297 0.340548 0.235681
974 3 0.715392 0.317134 0.229055
973 5 0.678736 0.346327 0.201976
975 5 0.725597 0.308676 0.203632
971 3 0.678467 0.327862 0.22382
1394 2 0.678524 0.386784 0.246364
1393 1 0.687701 0.408884 0.246477
1380 2 0.701537 0.431125 0.170195
1379 2 0.688453 0.411988 0.200112
1378 1 0.690243 0.410922 0.176273
972 5 0.663609 0.305415 0.214099
980 5 0.702227 0.260367 0.227024
978 3 0.719097 0.271209 0.247482
970 4 0.667401 0.344805 0.244921
1449 2 0.744109 0.394132 0.0281247
984 4 0.765138 0.261564 0.217794
1448 2 0.777674 0.398818 0.0112772
981 3 0.754107 0.255119 0.24396
1447 1 0.754159 0.398495 0.00685034
986 5 0.804023 0.271697 0.198709
1582 1 0.866513 0.41947 0.0722343
1584 2 0.868092 0.442726 0.0776507
5402 2 0.835789 0.405603 0.0402398
5401 1 0.822769 0.398826 0.0213401
5403 2 0.838056 0.399571 0.0029448
1626 2 0.877 0.268088 0.183956
1892 2 0.923304 0.255595 0.0501027
1583 2 0.883707 0.409098 0.0852505
1893 2 0.956345 0.267754 0.0362132
1891 1 0.936486 0.255867 0.0301324
1872 2 0.955043 0.440934 0.0376978
1870 1 0.967336 0.428981 0.0210053
1768 1 0.99422 0.323731 0.197534
1849 1 0.992208 0.290597 0.0567889
1847 2 0.960391 0.295687 0.213459
1846 1 0.94377 0.281923 0.223802
1821 2 0.990297 0.389262 0.153219
1819 1 0.978074 0.370074 0.145798
1809 2 0.932159 0.375318 0.0818661
1808 2 0.941144 0.383141 0.11779
1807 1 0.928021 0.391057 0.099411
1791 2 0.97154 0.454824 0.0879875
1790 2 0.939345 0.435021 0.0899256
1789 1 0.948169 0.456167 0.0830224
1781 2 0.902951 0.486867 0.0887683
1770 2 0.987946 0.338965 0.180178
1780 1 0.87904 0.487238 0.0878825
1625 2 0.906758 0.258339 0.205213
1820 2 0.991008 0.361376 0.12764
1848 2 0.95179 0.27856 0.246096
1871 2 0.960679 0.439007 0.000321903
1851 2 0.996989 0.311992 0.0663834
246 2 0.11007 0.0850849 0.263529
245 2 0.0738251 0.0741866 0.263591
244 1 0.0940323 0.0726302 0.250867
414 2 0.107737 0.21513 0.384125
368 2 0.161806 0.104646 0.287621
438 2 0.193942 0.152273 0.342075
413 2 0.137835 0.211791 0.406827
412 1 0.125769 0.200381 0.389597
367 1 0.138597 0.108885 0.291625
205 1 0.148687 0.146283 0.351926
369 2 0.138379 0.124189 0.31002
206 2 0.140161 0.165512 0.363335
207 2 0.145284 0.128218 0.367246
474 2 0.213667 0.118716 0.302814
473 2 0.215184 0.117563 0.265015
472 1 0.208154 0.104904 0.284066
437 2 0.228862 0.159021 0.355016
436 1 0.216957 0.151854 0.335535
469 1 0.275507 0.0998783 0.494164
471 2 0.279833 0.121064 0.483913
56 5 0.366541 0.217093 0.25503
702 2 0.262883 0.19841 0.387352
700 1 0.260713 0.17458 0.387582
65 6 0.31269 0.175406 0.338619
64 5 0.275652 0.189632 0.31364
59 3 0.324374 0.195873 0.288502
58 4 0.352278 0.189114 0.294553
62 3 0.301043 0.176706 0.312428
63 5 0.297337 0.150202 0.302525
66 7 0.335506 0.168465 0.333948
60 5 0.319538 0.223875 0.291849
61 5 0.315298 0.189118 0.262049
55 3 0.371755 0.196177 0.273947
703 1 0.334035 0.0438323 0.317853
701 2 0.277671 0.166866 0.372564
696 2 0.309172 0.171883 0.451235
695 2 0.278879 0.164039 0.429945
694 1 0.291043 0.156411 0.449089
549 2 0.294366 0.0818653 0.447254
548 2 0.301685 0.11509 0.430672
547 1 0.30363 0.0914663 0.427389
675 2 0.332377 0.0758954 0.396712
674 2 0.355192 0.0862455 0.368342
673 1 0.348707 0.0673161 0.381468
704 2 0.335621 0.0484108 0.341288
705 2 0.317124 0.026986 0.316163
909 2 0.35164 0.0963967 0.315735
635 2 0.30358 0.217787 0.359559
907 1 0.366983 0.109603 0.328495
634 1 0.293923 0.235797 0.37201
4463 2 0.365098 0.206348 0.466341
4462 1 0.344511 0.203331 0.454522
4464 2 0.335302 0.22535 0.452795
2862 2 0.371498 0.0197354 0.309552
52 3 0.383933 0.165201 0.254266
945 2 0.395575 0.0268346 0.431718
57 5 0.393962 0.205167 0.289527
54 5 0.397196 0.148121 0.273042
778 1 0.397614 0.19679 0.405491
908 2 0.388357 0.0996904 0.324305
810 2 0.398407 0.14535 0.344262
944 2 0.383125 0.0472882 0.402408
779 2 0.375998 0.195669 0.415697
2860 1 0.390785 0.00651106 0.304475
1199 2 0.573825 0.0741866 0.263591
1198 1 0.594032 0.0726302 0.250867
943 1 0.402563 0.0361415 0.410809
780 2 0.411792 0.205945 0.422456
808 1 0.419614 0.152329 0.352876
926 2 0.428357 0.0647365 0.279758
925 1 0.423856 0.0500857 0.261381
748 1 0.410549 0.212898 0.479912
749 2 0.421049 0.192654 0.487162
750 2 0.419146 0.229713 0.494609
809 2 0.414209 0.167772 0.370339
2837 2 0.426603 0.027199 0.374119
2838 2 0.422927 0.0141653 0.338777
2861 2 0.401906 0.0185627 0.287047
2836 1 0.43886 0.0237115 0.353865
1144 1 0.432186 0.0859308 0.321359
1146 2 0.438516 0.104974 0.334395
1145 2 0.437195 0.067161 0.335332
1200 2 0.61007 0.0850849 0.263529
1368 2 0.607737 0.21513 0.384125
1428 2 0.713667 0.118716 0.302814
1427 2 0.715184 0.117563 0.265015
1426 1 0.708154 0.104904 0.284066
1322 2 0.661806 0.104646 0.287621
1392 2 0.693942 0.152273 0.342075
1391 2 0.728862 0.159021 0.355016
1390 1 0.716957 0.151854 0.335535
1367 2 0.637835 0.211791 0.406827
1366 1 0.625769 0.200381 0.389597
1321 1 0.638597 0.108885 0.291625
1159 1 0.648687 0.146283 0.351926
1323 2 0.638379 0.124189 0.31002
1160 2 0.640161 0.165512 0.363335
1161 2 0.645284 0.128218 0.367246
1423 1 0.775507 0.0998783 0.494164
1425 2 0.779833 0.121064 0.483913
1656 2 0.762883 0.19841 0.387352
1654 1 0.760713 0.17458 0.387582
1018 5 0.775652 0.189632 0.31364
1017 5 0.797337 0.150202 0.302525
1655 2 0.777671 0.166866 0.372564
1649 2 0.778879 0.164039 0.429945
1648 1 0.791043 0.156411 0.449089
1503 2 0.794366 0.0818653 0.447254
1588 1 0.793923 0.235797 0.37201
1010 5 0.866541 0.217093 0.25503
1019 6 0.81269 0.175406 0.338619
1013 3 0.824374 0.195873 0.288502
1012 4 0.852278 0.189114 0.294553
1016 3 0.801043 0.176706 0.312428
1020 7 0.835506 0.168465 0.333948
1014 5 0.819538 0.223875 0.291849
1015 5 0.815298 0.189118 0.262049
1009 3 0.871755 0.196177 0.273947
1657 1 0.834035 0.0438323 0.317853
1650 2 0.809172 0.171883 0.451235
1502 2 0.801685 0.11509 0.430672
1501 1 0.80363 0.0914663 0.427389
1629 2 0.832377 0.0758954 0.396712
1628 2 0.855192 0.0862455 0.368342
1627 1 0.848707 0.0673161 0.381468
1658 2 0.835621 0.0484108 0.341288
1659 2 0.817124 0.026986 0.316163
1863 2 0.85164 0.0963967 0.315735
1589 2 0.80358 0.217787 0.359559
1861 1 0.866983 0.109603 0.328495
5417 2 0.865098 0.206348 0.466341
5416 1 0.844511 0.203331 0.454522
5418 2 0.835302 0.22535 0.452795
3816 2 0.871498 0.0197354 0.309552
190 1 0.932186 0.0859308 0.321359
192 2 0.938516 0.104974 0.334395
191 2 0.937195 0.067161 0.335332
1006 3 0.883933 0.165201 0.254266
1899 2 0.895575 0.0268346 0.431718
1011 5 0.893962 0.205167 0.289527
1008 5 0.897196 0.148121 0.273042
1897 1 0.902563 0.0361415 0.410809
1732 1 0.897614 0.19679 0.405491
1734 2 0.911792 0.205945 0.422456
1762 1 0.919614 0.152329 0.352876
1880 2 0.928357 0.0647365 0.279758
1879 1 0.923856 0.0500857 0.261381
1862 2 0.888357 0.0996904 0.324305
1702 1 0.910549 0.212898 0.479912
1703 2 0.921049 0.192654 0.487162
1704 2 0.919146 0.229713 0.494609
1763 2 0.914209 0.167772 0.370339
1764 2 0.898407 0.14535 0.344262
1898 2 0.883125 0.0472882 0.402408
1733 2 0.875998 0.195669 0.415697
3814 1 0.890785 0.00651106 0.304475
3791 2 0.926603 0.027199 0.374119
3792 2 0.922927 0.0141653 0.338777
3815 2 0.901906 0.0185627 0.287047
3790 1 0.93886 0.0237115 0.353865
233 2 0.00439934 0.493021 0.387896
9 4 0.104526 0.355394 0.258489
227 2 0.0355985 0.297097 0.428241
228 2 0.0643679 0.321325 0.424029
7 5 0.0855211 0.39655 0.275389
11 5 0.114069 0.337584 0.302524
226 1 0.0497768 0.306941 0.411666
8 5 0.0648043 0.357086 0.286856
6 3 0.0802057 0.369844 0.266263
10 3 0.124187 0.351878 0.279803
1901 2 0.0125206 0.346277 0.354205
1902 2 0.0377357 0.321921 0.368468
1900 1 0.0307843 0.332127 0.34797
14 5 0.172888 0.329429 0.28772
456 2 0.162911 0.444566 0.430984
386 2 0.14583 0.466427 0.28466
454 1 0.159185 0.421406 0.426254
387 2 0.160841 0.432873 0.275648
385 1 0.147945 0.443921 0.292509
15 5 0.143675 0.304057 0.263382
12 5 0.13521 0.376402 0.289679
455 2 0.153321 0.420887 0.40306
13 3 0.153657 0.330764 0.266574
2385 2 0.196255 0.498427 0.422133
2383 1 0.186392 0.485349 0.439579
25 5 0.208272 0.261722 0.272162
468 2 0.207809 0.417704 0.44456
441 2 0.209094 0.406444 0.256919
466 1 0.227279 0.430421 0.450201
467 2 0.236482 0.419183 0.469219
23 4 0.219802 0.300041 0.252367
2384 2 0.203516 0.46987 0.445886
664 1 0.34793 0.454816 0.285426
662 2 0.31016 0.473932 0.303686
663 2 0.287067 0.473302 0.333665
661 1 0.293663 0.486941 0.315141
28 5 0.269901 0.264793 0.265786
636 2 0.306504 0.255061 0.365433
666 2 0.364559 0.471035 0.291179
665 2 0.360299 0.436624 0.276007
947 2 0.512521 0.346277 0.354205
948 2 0.537736 0.321921 0.368468
946 1 0.530784 0.332127 0.34797
1187 2 0.504399 0.493021 0.387896
1181 2 0.535598 0.297097 0.428241
1182 2 0.564368 0.321325 0.424029
961 5 0.585521 0.39655 0.275389
1180 1 0.549777 0.306941 0.411666
962 5 0.564804 0.357086 0.286856
960 3 0.580206 0.369844 0.266263
1186 1 0.482966 0.483339 0.392312
1188 2 0.467862 0.495582 0.378361
963 4 0.604526 0.355394 0.258489
965 5 0.614069 0.337584 0.302524
964 3 0.624187 0.351878 0.279803
979 5 0.708272 0.261722 0.272162
968 5 0.672888 0.329429 0.28772
1422 2 0.707809 0.417704 0.44456
1395 2 0.709094 0.406444 0.256919
1410 2 0.662911 0.444566 0.430984
1340 2 0.64583 0.466427 0.28466
1408 1 0.659185 0.421406 0.426254
1420 1 0.727279 0.430421 0.450201
1421 2 0.736482 0.419183 0.469219
1341 2 0.660841 0.432873 0.275648
1339 1 0.647945 0.443921 0.292509
969 5 0.643675 0.304057 0.263382
966 5 0.63521 0.376402 0.289679
1409 2 0.653321 0.420887 0.40306
977 4 0.719802 0.300041 0.252367
967 3 0.653657 0.330764 0.266574
3338 2 0.703516 0.46987 0.445886
3339 2 0.696255 0.498427 0.422133
3337 1 0.686392 0.485349 0.439579
1617 2 0.787067 0.473302 0.333665
1615 1 0.793663 0.486941 0.315141
982 5 0.769901 0.264793 0.265786
1618 1 0.84793 0.454816 0.285426
1616 2 0.81016 0.473932 0.303686
1590 2 0.806504 0.255061 0.365433
1620 2 0.864559 0.471035 0.291179
1619 2 0.860299 0.436624 0.276007
232 1 0.982966 0.483339 0.392312
234 2 0.967862 0.495582 0.378361
3987 2 0.0551699 0.234977 0.583516
4053 2 0.108237 0.200057 0.577613
4052 2 0.0800673 0.179766 0.562541
4051 1 0.084683 0.200575 0.573419
3986 2 0.0359364 0.246383 0.614051
4266 2 0.190794 0.0856411 0.642306
4263 2 0.170293 0.182422 0.590997
4262 2 0.166623 0.218077 0.578846
4261 1 0.154239 0.197895 0.582309
3855 5 0.248947 0.171387 0.678918
4159 1 0.205467 0.156625 0.607298
4160 2 0.219487 0.143845 0.592712
4161 2 0.203789 0.143365 0.627147
4265 2 0.223432 0.094692 0.625415
4264 1 0.211983 0.0959852 0.646389
4108 1 0.241637 0.0984436 0.582977
4110 2 0.229643 0.0925409 0.563129
4176 2 0.237606 0.0729786 0.677013
4204 1 0.213837 0.0823371 0.521423
4205 2 0.204253 0.0650088 0.507987
4206 2 0.233554 0.0889129 0.509563
4175 2 0.237958 0.0573597 0.711486
470 2 0.289957 0.0993769 0.513232
3864 3 0.365954 0.129233 0.725506
3867 4 0.360957 0.153424 0.740907
3859 5 0.281301 0.119829 0.678588
3854 3 0.277414 0.173778 0.68027
3858 5 0.277642 0.137992 0.720933
3863 5 0.339256 0.100911 0.687697
3860 4 0.319728 0.141912 0.696786
3861 3 0.332579 0.118671 0.70912
3857 3 0.290629 0.14093 0.695568
3853 4 0.282258 0.196119 0.698491
3862 5 0.318737 0.102877 0.728675
3856 5 0.286701 0.174318 0.653101
3850 3 0.288472 0.221488 0.685552
3852 5 0.314071 0.220434 0.672741
3849 5 0.309236 0.241312 0.73219
3847 3 0.291098 0.249782 0.7117
4689 2 0.348551 0.169141 0.675588
4503 2 0.292792 0.0469735 0.676004
4502 2 0.32138 0.0243044 0.686067
4501 1 0.314422 0.0395353 0.668971
4494 2 0.320554 0.0671233 0.578908
4493 2 0.298555 0.0483877 0.554465
4492 1 0.303283 0.0703662 0.562664
3851 5 0.269476 0.230088 0.66589
4715 2 0.338999 0.047739 0.630506
4714 1 0.352181 0.0533399 0.611335
4687 1 0.364011 0.178489 0.659895
4688 2 0.372922 0.19773 0.670985
4109 2 0.26392 0.0906467 0.579064
4716 2 0.36251 0.0741608 0.617032
4737 2 0.373355 0.136535 0.637943
3865 5 0.374091 0.107177 0.741895
4174 1 0.251509 0.0605686 0.692025
3845 5 0.250367 0.226963 0.747846
6552 2 0.373079 0.00901979 0.595798
4735 1 0.381318 0.116053 0.628471
3866 5 0.385245 0.131649 0.704488
4486 1 0.386731 0.249533 0.695518
4941 2 0.55517 0.234977 0.583516
5006 2 0.580067 0.179766 0.562541
5005 1 0.584683 0.200575 0.573419
4940 2 0.535936 0.246383 0.614051
3869 5 0.403676 0.174821 0.735871
4743 2 0.443449 0.051418 0.747707
4736 2 0.40371 0.120933 0.621586
5007 2 0.608237 0.200057 0.577613
4809 5 0.748947 0.171387 0.678918
5113 1 0.705467 0.156625 0.607298
5114 2 0.719487 0.143845 0.592712
5115 2 0.703789 0.143365 0.627147
5220 2 0.690794 0.0856411 0.642306
5219 2 0.723432 0.094692 0.625415
5218 1 0.711983 0.0959852 0.646389
5217 2 0.670293 0.182422 0.590997
5216 2 0.666623 0.218077 0.578846
5215 1 0.654239 0.197895 0.582309
5062 1 0.741637 0.0984436 0.582977
5064 2 0.729643 0.0925409 0.563129
5130 2 0.737606 0.0729786 0.677013
5158 1 0.713837 0.0823371 0.521423
5159 2 0.704253 0.0650088 0.507987
5160 2 0.733554 0.0889129 0.509563
5129 2 0.737958 0.0573597 0.711486
1424 2 0.789957 0.0993769 0.513232
4813 5 0.781301 0.119829 0.678588
4808 3 0.777414 0.173778 0.68027
4812 5 0.777642 0.137992 0.720933
4811 3 0.790629 0.14093 0.695568
4807 4 0.782258 0.196119 0.698491
4810 5 0.786701 0.174318 0.653101
4804 3 0.788472 0.221488 0.685552
4801 3 0.791098 0.249782 0.7117
5457 2 0.792792 0.0469735 0.676004
5447 2 0.798555 0.0483877 0.554465
4805 5 0.769476 0.230088 0.66589
5063 2 0.76392 0.0906467 0.579064
5128 1 0.751509 0.0605686 0.692025
4799 5 0.750367 0.226963 0.747846
4818 3 0.865954 0.129233 0.725506
4821 4 0.860957 0.153424 0.740907
4817 5 0.839256 0.100911 0.687697
4814 4 0.819728 0.141912 0.696786
4815 3 0.832579 0.118671 0.70912
4816 5 0.818737 0.102877 0.728675
4806 5 0.814071 0.220434 0.672741
4803 5 0.809236 0.241312 0.73219
5643 2 0.848551 0.169141 0.675588
5456 2 0.82138 0.0243044 0.686067
5455 1 0.814422 0.0395353 0.668971
5448 2 0.820554 0.0671233 0.578908
5446 1 0.803283 0.0703662 0.562664
5669 2 0.838999 0.047739 0.630506
5668 1 0.852181 0.0533399 0.611335
5641 1 0.864011 0.178489 0.659895
5642 2 0.872922 0.19773 0.670985
5670 2 0.86251 0.0741608 0.617032
5691 2 0.873355 0.136535 0.637943
4819 5 0.874091 0.107177 0.741895
7506 2 0.873079 0.00901979 0.595798
4823 5 0.903676 0.174821 0.735871
5697 2 0.943449 0.051418 0.747707
5690 2 0.90371 0.120933 0.621586
5689 1 0.881318 0.116053 0.628471
4820 5 0.885245 0.131649 0.704488
5440 1 0.886731 0.249533 0.695518
3985 1 0.0393812 0.251373 0.590902
3820 6 0.0573227 0.349571 0.720222
3821 7 0.0795104 0.34077 0.724513
3818 5 0.0661122 0.395334 0.719502
3817 3 0.0570507 0.373668 0.735657
3819 5 0.0304713 0.379023 0.744463
4038 2 0.0363565 0.428375 0.560293
4037 2 0.00115598 0.419206 0.549839
4036 1 0.0166456 0.417184 0.567967
4020 2 0.0162726 0.372806 0.580629
4019 2 0.0368938 0.343275 0.592253
4018 1 0.0143073 0.350789 0.589795
5585 2 0.0154962 0.331668 0.705081
5666 2 0.00809298 0.275813 0.566875
3835 5 0.178736 0.346327 0.701976
3833 3 0.178467 0.327862 0.72382
4256 2 0.178524 0.386784 0.746364
4255 1 0.187701 0.408884 0.746477
4241 2 0.188453 0.411988 0.700112
4240 1 0.190243 0.410922 0.676273
3834 5 0.163609 0.305415 0.714099
3832 4 0.167401 0.344805 0.744921
3838 5 0.230297 0.340548 0.735681
3836 3 0.215392 0.317134 0.729055
3837 5 0.225597 0.308676 0.703632
4242 2 0.201537 0.431125 0.670195
3842 5 0.202227 0.260367 0.727024
3840 3 0.219097 0.271209 0.747482
4311 2 0.244109 0.394132 0.528125
632 2 0.335789 0.405603 0.54024
631 1 0.322769 0.398826 0.52134
633 2 0.338056 0.399571 0.502945
3846 4 0.265138 0.261564 0.717794
3848 5 0.304023 0.271697 0.698709
4310 2 0.277674 0.398818 0.511277
3843 3 0.254107 0.255119 0.74396
4444 1 0.366513 0.41947 0.572234
4309 1 0.254159 0.398495 0.50685
4446 2 0.368092 0.442726 0.577651
4488 2 0.377 0.268088 0.683956
4445 2 0.383707 0.409098 0.585251
4642 1 0.37904 0.487238 0.587883
4631 2 0.515496 0.331668 0.705081
4712 2 0.508093 0.275813 0.566875
4939 1 0.539381 0.251373 0.590902
4774 6 0.557323 0.349571 0.720222
4775 7 0.57951 0.34077 0.724513
4772 5 0.566112 0.395334 0.719502
4771 3 0.557051 0.373668 0.735657
4773 5 0.530471 0.379023 0.744463
4992 2 0.536356 0.428375 0.560293
4991 2 0.501156 0.419206 0.549839
4990 1 0.516646 0.417184 0.567967
4974 2 0.516273 0.372806 0.580629
4973 2 0.536894 0.343275 0.592253
4972 1 0.514307 0.350789 0.589795
4754 2 0.423304 0.255595 0.550103
4755 2 0.456345 0.267754 0.536213
4753 1 0.436486 0.255867 0.530132
4734 2 0.455043 0.440934 0.537698
4732 1 0.467336 0.428981 0.521005
4630 1 0.49422 0.323731 0.697534
4711 1 0.492208 0.290597 0.556789
4709 2 0.460391 0.295687 0.713459
4708 1 0.44377 0.281923 0.723802
4683 2 0.490297 0.389262 0.653219
4681 1 0.478074 0.370074 0.645798
4671 2 0.432159 0.375318 0.581866
4670 2 0.441144 0.383141 0.61779
4669 1 0.428021 0.391057 0.599411
4653 2 0.47154 0.454824 0.587988
4652 2 0.439345 0.435021 0.589926
4651 1 0.448169 0.456167 0.583022
4643 2 0.402951 0.486867 0.588768
4632 2 0.487946 0.338965 0.680178
4487 2 0.406758 0.258339 0.705213
4682 2 0.491008 0.361376 0.62764
4710 2 0.45179 0.27856 0.746096
4733 2 0.460679 0.439007 0.500322
4713 2 0.496989 0.311992 0.566383
4792 5 0.730297 0.340548 0.735681
4790 3 0.715392 0.317134 0.729055
4789 5 0.678736 0.346327 0.701976
4791 5 0.725597 0.308676 0.703632
4787 3 0.678467 0.327862 0.72382
5210 2 0.678524 0.386784 0.746364
5209 1 0.687701 0.408884 0.746477
5196 2 0.701537 0.431125 0.670195
5195 2 0.688453 0.411988 0.700112
5194 1 0.690243 0.410922 0.676273
4788 5 0.663609 0.305415 0.714099
4796 5 0.702227 0.260367 0.727024
4794 3 0.719097 0.271209 0.747482
4786 4 0.667401 0.344805 0.744921
5265 2 0.744109 0.394132 0.528125
4800 4 0.765138 0.261564 0.717794
5264 2 0.777674 0.398818 0.511277
4797 3 0.754107 0.255119 0.74396
5263 1 0.754159 0.398495 0.50685
1586 2 0.835789 0.405603 0.54024
1585 1 0.822769 0.398826 0.52134
1587 2 0.838056 0.399571 0.502945
4802 5 0.804023 0.271697 0.698709
5398 1 0.866513 0.41947 0.572234
5400 2 0.868092 0.442726 0.577651
5442 2 0.877 0.268088 0.683956
5708 2 0.923304 0.255595 0.550103
5399 2 0.883707 0.409098 0.585251
5709 2 0.956345 0.267754 0.536213
5707 1 0.936486 0.255867 0.530132
5688 2 0.955043 0.440934 0.537698
5686 1 0.967336 0.428981 0.521005
5584 1 0.99422 0.323731 0.697534
5665 1 0.992208 0.290597 0.556789
5663 2 0.960391 0.295687 0.713459
5662 1 0.94377 0.281923 0.723802
5637 2 0.990297 0.389262 0.653219
5635 1 0.978074 0.370074 0.645798
5625 2 0.932159 0.375318 0.581866
5624 2 0.941144 0.383141 0.61779
5623 1 0.928021 0.391057 0.599411
5607 2 0.97154 0.454824 0.587988
5606 2 0.939345 0.435021 0.589926
5605 1 0.948169 0.456167 0.583022
5597 2 0.902951 0.486867 0.588768
5586 2 0.987946 0.338965 0.680178
5596 1 0.87904 0.487238 0.587883
5441 2 0.906758 0.258339 0.705213
5636 2 0.991008 0.361376 0.62764
5664 2 0.95179 0.27856 0.746096
5687 2 0.960679 0.439007 0.500322
5667 2 0.996989 0.311992 0.566383
4062 2 0.11007 0.0850849 0.763529
4061 2 0.0738251 0.0741866 0.763591
4060 1 0.0940323 0.0726302 0.750867
4230 2 0.107737 0.21513 0.884125
4184 2 0.161806 0.104646 0.787621
4254 2 0.193942 0.152273 0.842075
4229 2 0.137835 0.211791 0.906827
4228 1 0.125769 0.200381 0.889597
4183 1 0.138597 0.108885 0.791625
4021 1 0.148687 0.146283 0.851926
4185 2 0.138379 0.124189 0.81002
4022 2 0.140161 0.165512 0.863335
4023 2 0.145284 0.128218 0.867246
4290 2 0.213667 0.118716 0.802814
4289 2 0.215184 0.117563 0.765015
4288 1 0.208154 0.104904 0.784066
4253 2 0.228862 0.159021 0.855016
4252 1 0.216957 0.151854 0.835535
647 2 0.365098 0.206348 0.966341
646 1 0.344511 0.203331 0.954522
648 2 0.335302 0.22535 0.952795
4285 1 0.275507 0.0998783 0.994164
4287 2 0.279833 0.121064 0.983913
3872 5 0.366541 0.217093 0.75503
4518 2 0.262883 0.19841 0.887352
4516 1 0.260713 0.17458 0.887582
3881 6 0.31269 0.175406 0.838619
3880 5 0.275652 0.189632 0.81364
3875 3 0.324374 0.195873 0.788502
3874 4 0.352278 0.189114 0.794553
3878 3 0.301043 0.176706 0.812428
3879 5 0.297337 0.150202 0.802525
3882 7 0.335506 0.168465 0.833948
3876 5 0.319538 0.223875 0.791849
3877 5 0.315298 0.189118 0.762049
3871 3 0.371755 0.196177 0.773947
4519 1 0.334035 0.0438323 0.817853
4517 2 0.277671 0.166866 0.872564
4512 2 0.309172 0.171883 0.951235
4511 2 0.278879 0.164039 0.929945
4510 1 0.291043 0.156411 0.949089
4365 2 0.294366 0.0818653 0.947254
4364 2 0.301685 0.11509 0.930672
4363 1 0.30363 0.0914663 0.927389
4491 2 0.332377 0.0758954 0.896712
4490 2 0.355192 0.0862455 0.868342
4489 1 0.348707 0.0673161 0.881468
4520 2 0.335621 0.0484108 0.841288
4521 2 0.317124 0.026986 0.816163
4725 2 0.35164 0.0963967 0.815735
4451 2 0.30358 0.217787 0.859559
4723 1 0.366983 0.109603 0.828495
4450 1 0.293923 0.235797 0.87201
6678 2 0.371498 0.0197354 0.809552
3868 3 0.383933 0.165201 0.754266
4761 2 0.395575 0.0268346 0.931718
3873 5 0.393962 0.205167 0.789527
3870 5 0.397196 0.148121 0.773042
4594 1 0.397614 0.19679 0.905491
4724 2 0.388357 0.0996904 0.824305
4626 2 0.398407 0.14535 0.844262
4760 2 0.383125 0.0472882 0.902408
4595 2 0.375998 0.195669 0.915697
6676 1 0.390785 0.00651106 0.804475
5015 2 0.573825 0.0741866 0.763591
5014 1 0.594032 0.0726302 0.750867
4759 1 0.402563 0.0361415 0.910809
4596 2 0.411792 0.205945 0.922456
4624 1 0.419614 0.152329 0.852876
4742 2 0.428357 0.0647365 0.779758
4741 1 0.423856 0.0500857 0.761381
4564 1 0.410549 0.212898 0.979912
4565 2 0.421049 0.192654 0.987162
4566 2 0.419146 0.229713 0.994609
4625 2 0.414209 0.167772 0.870339
6653 2 0.426603 0.027199 0.874119
6654 2 0.422927 0.0141653 0.838777
6677 2 0.401906 0.0185627 0.787047
6652 1 0.43886 0.0237115 0.853865
4960 1 0.432186 0.0859308 0.821359
4962 2 0.438516 0.104974 0.834395
4961 2 0.437195 0.067161 0.835332
5016 2 0.61007 0.0850849 0.763529
5184 2 0.607737 0.21513 0.884125
5244 2 0.713667 0.118716 0.802814
5243 2 0.715184 0.117563 0.765015
5242 1 0.708154 0.104904 0.784066
5138 2 0.661806 0.104646 0.787621
5208 2 0.693942 0.152273 0.842075
5207 2 0.728862 0.159021 0.855016
5206 1 0.716957 0.151854 0.835535
5183 2 0.637835 0.211791 0.906827
5182 1 0.625769 0.200381 0.889597
5137 1 0.638597 0.108885 0.791625
4975 1 0.648687 0.146283 0.851926
5139 2 0.638379 0.124189 0.81002
4976 2 0.640161 0.165512 0.863335
4977 2 0.645284 0.128218 0.867246
5239 1 0.775507 0.0998783 0.994164
5241 2 0.779833 0.121064 0.983913
5472 2 0.762883 0.19841 0.887352
5470 1 0.760713 0.17458 0.887582
4834 5 0.775652 0.189632 0.81364
4833 5 0.797337 0.150202 0.802525
5471 2 0.777671 0.166866 0.872564
5465 2 0.778879 0.164039 0.929945
5464 1 0.791043 0.156411 0.949089
5319 2 0.794366 0.0818653 0.947254
5404 1 0.793923 0.235797 0.87201
1601 2 0.865098 0.206348 0.966341
1600 1 0.844511 0.203331 0.954522
1602 2 0.835302 0.22535 0.952795
4826 5 0.866541 0.217093 0.75503
4835 6 0.81269 0.175406 0.838619
4829 3 0.824374 0.195873 0.788502
4828 4 0.852278 0.189114 0.794553
4832 3 0.801043 0.176706 0.812428
4836 7 0.835506 0.168465 0.833948