ITEM: TIMESTEP
11000
ITEM: NUMBER OF ATOMS
2040
ITEM: BOX BOUNDS pp pp pp
-6.9398210461325114e+00 2.0819463138397534e+01
-6.9398210461325114e+00 2.0819463138397534e+01
-6.9398210461325114e+00 2.0819463138397534e+01
ITEM: ATOMS id type xs ys zs
200 2 0.0364041 0.349684 0.200934
431 2 0.0179667 0.182557 0.178382
468 2 0.113635 0.349301 0.3051
882 2 0.0820722 0.12927 0.181923
199 1 0.0275124 0.380056 0.214628
273 2 0.0832868 0.263464 0.237607
442 1 0.0593217 0.20035 0.0572259
432 2 0.0659952 0.202616 0.162098
881 2 0.114577 0.163069 0.209767
208 1 0.0324179 0.0637041 0.450081
271 1 0.0555793 0.262086 0.258087
443 2 0.0384275 0.22778 0.0571115
266 2 0.0176493 0.270889 0.364358
265 1 0.0514098 0.266456 0.358917
210 2 0.058551 0.0559032 0.428981
480 2 0.104384 0.450639 0.298154
430 1 0.0379951 0.186139 0.150543
445 1 0.0328874 0.133447 0.355972
267 2 0.0534707 0.254533 0.326628
446 2 0.0565475 0.130306 0.331086
389 2 0.124563 0.220407 0.42676
388 1 0.0946591 0.203602 0.423242
390 2 0.0745026 0.225401 0.405705
223 1 0.120074 0.140178 0.494529
203 2 0.104994 0.0603795 0.325945
447 2 0.05119 0.139188 0.384627
201 2 0.053246 0.387637 0.236292
225 2 0.110326 0.14583 0.461939
444 2 0.0556835 0.186842 0.0887431
478 1 0.0893102 0.419831 0.29459
202 1 0.1098 0.0694029 0.358877
104 2 0.101919 0.460048 0.410805
103 1 0.0785903 0.434709 0.41246
479 2 0.0677675 0.417591 0.321421
105 2 0.0973221 0.405844 0.414686
209 2 0.0476318 0.075453 0.478708
467 2 0.116717 0.303419 0.334418
272 2 0.0297965 0.274052 0.238566
880 1 0.0954746 0.134574 0.213249
4040 2 0.104918 0.16535 0.0125748
4479 2 0.122923 0.348409 0.00228184
2041 1 0.0841866 0.496294 0.0134041
2042 2 0.0845565 0.463909 0.0252411
5859 2 0.0569739 0.49746 0.492259
1896 2 0.0183883 0.453952 0.10373
1900 1 0.116425 0.262817 0.169946
1873 1 0.0680697 0.338149 0.103402
1902 2 0.0997005 0.288468 0.154093
1874 2 0.0922899 0.361782 0.110026
1875 2 0.0497873 0.351554 0.0774201
1898 2 0.035126 0.289343 0.453281
1894 1 0.017826 0.445021 0.0704291
1897 1 0.0288625 0.276319 0.484588
5664 2 0.000652273 0.267976 0.151715
5656 1 0.0621811 0.0820789 0.056431
5657 2 0.0701657 0.0515155 0.0426056
5658 2 0.0815221 0.104739 0.0390687
5383 1 0.0195531 0.479276 0.171798
5385 2 0.0134595 0.447407 0.183473
3814 1 0.0970465 0.041292 0.142882
3816 2 0.0733224 0.0206376 0.15701
3815 2 0.0813809 0.0548731 0.115329
3770 2 0.0759921 0.0925901 0.253684
3771 2 0.0323506 0.0605629 0.260312
3769 1 0.063051 0.0680217 0.274127
936 2 0.193541 0.283287 0.304147
32 5 0.201314 0.302326 0.0460933
466 1 0.13593 0.329318 0.322205
704 2 0.189948 0.119684 0.48859
42 5 0.161353 0.106112 0.0968825
46 5 0.179039 0.0692703 0.176725
41 3 0.193772 0.127319 0.111281
12 5 0.241439 0.44023 0.246146
40 5 0.136367 0.181632 0.105818
44 4 0.217229 0.114301 0.144158
703 1 0.219814 0.103249 0.493778
45 3 0.213446 0.0742488 0.154736
47 5 0.212442 0.0476717 0.122966
2 5 0.196658 0.408772 0.102201
4 6 0.155526 0.369149 0.136077
3 5 0.141088 0.433529 0.125445
37 4 0.202699 0.20865 0.0997474
1 3 0.17095 0.407011 0.133758
8 5 0.168594 0.442881 0.205133
38 3 0.17616 0.180892 0.116631
7 5 0.223257 0.453175 0.167162
9 4 0.221419 0.393089 0.194858
6 3 0.196864 0.424658 0.180992
39 5 0.179898 0.190959 0.156317
36 5 0.176216 0.206973 0.0343502
5 7 0.182384 0.349183 0.147144
10 3 0.242001 0.401743 0.230757
11 5 0.221266 0.380898 0.259446
204 2 0.130224 0.0447578 0.371702
35 5 0.151656 0.251094 0.0733773
63 5 0.191251 0.113355 0.400224
64 5 0.196792 0.166431 0.363163
62 3 0.215766 0.131038 0.372328
719 2 0.179161 0.00488076 0.415991
31 3 0.223276 0.267807 0.0470485
61 5 0.193554 0.0717711 0.330256
43 5 0.221719 0.128516 0.0809175
34 3 0.187122 0.230537 0.0664118
59 3 0.22141 0.101911 0.32616
60 5 0.207417 0.124909 0.294616
934 1 0.219077 0.265739 0.289014
935 2 0.223389 0.281299 0.258547
33 5 0.233315 0.258987 0.007817
49 5 0.246095 0.0170827 0.192099
4477 1 0.146228 0.364507 0.0219481
4521 2 0.211685 0.0768561 0.0144258
4478 2 0.146733 0.346428 0.0513065
2301 2 0.221814 0.461544 0.493858
2299 1 0.199309 0.486223 0.485285
2377 1 0.213876 0.292987 0.173282
2378 2 0.225276 0.278428 0.144177
2210 2 0.188723 0.382296 0.411293
2626 1 0.169652 0.497585 0.383659
2590 1 0.240513 0.385819 0.00446037
2592 2 0.207498 0.376099 0.00658537
2211 2 0.160841 0.355064 0.373145
2209 1 0.16124 0.361932 0.406934
2628 2 0.191678 0.473081 0.37349
2379 2 0.241177 0.309995 0.185709
6116 2 0.170535 0.478015 0.00242221
1760 2 0.170607 0.302578 0.416459
1761 2 0.204473 0.260085 0.411809
1901 2 0.147546 0.275867 0.177035
1759 1 0.173318 0.268959 0.423627
3786 2 0.173935 0.0430756 0.267143
3785 2 0.140908 0.0117388 0.237118
3784 1 0.16131 0.0110656 0.264909
693 2 0.310361 0.35514 0.102887
50 5 0.290845 0.0537534 0.163202
65 6 0.252967 0.140963 0.38996
48 3 0.256962 0.0565096 0.186521
710 2 0.323858 0.169406 0.420067
66 7 0.270042 0.110679 0.394954
58 4 0.254277 0.0749741 0.323503
30 4 0.252589 0.272912 0.0767759
28 5 0.306756 0.263716 0.0332151
692 2 0.264644 0.373619 0.0795909
13 3 0.294706 0.385558 0.231246
24 3 0.328775 0.267482 0.109552
23 4 0.322118 0.298885 0.137704
14 5 0.309071 0.414804 0.205638
52 3 0.28879 0.0626603 0.250797
16 4 0.29906 0.346839 0.216381
15 5 0.308083 0.393142 0.269664
54 5 0.293113 0.0229269 0.260758
762 2 0.25599 0.212058 0.388528
27 3 0.289842 0.254303 0.0696097
29 5 0.286939 0.212941 0.0705236
51 4 0.258001 0.0751605 0.224396
53 5 0.321915 0.0769414 0.230855
56 5 0.293989 0.129749 0.294608
691 1 0.292453 0.384037 0.0971168
55 3 0.287645 0.089206 0.300859
57 5 0.317064 0.0758637 0.326275
760 1 0.259342 0.245945 0.383101
761 2 0.254566 0.24978 0.349168
4465 1 0.284088 0.051894 0.434724
4473 2 0.279388 0.328226 0.40858
4467 2 0.275229 0.028651 0.410843
4472 2 0.291325 0.377259 0.387903
4471 1 0.269563 0.36127 0.409345
4466 2 0.254865 0.0582039 0.451906
2621 2 0.305722 0.466058 0.353123
2622 2 0.267554 0.49929 0.332798
2620 1 0.271778 0.468395 0.347518
6407 2 0.251131 0.373755 0.473952
1238 2 0.261016 0.155408 0.184689
1239 2 0.27514 0.205558 0.200807
1237 1 0.28705 0.173277 0.198543
942 2 0.518388 0.453952 0.10373
946 1 0.616425 0.262817 0.169946
919 1 0.56807 0.338149 0.103402
948 2 0.599701 0.288468 0.154093
920 2 0.59229 0.361782 0.110026
921 2 0.549787 0.351554 0.0774201
944 2 0.535126 0.289343 0.453281
940 1 0.517826 0.445021 0.0704291
943 1 0.528863 0.276319 0.484588
4710 2 0.500652 0.267976 0.151715
4702 1 0.562181 0.0820789 0.056431
4703 2 0.570166 0.0515155 0.0426056
4704 2 0.581522 0.104739 0.0390687
4429 1 0.519553 0.479276 0.171798
4431 2 0.513459 0.447407 0.183473
2860 1 0.597046 0.041292 0.142882
2862 2 0.573322 0.0206376 0.15701
2861 2 0.581381 0.0548731 0.115329
2816 2 0.575992 0.0925901 0.253684
2817 2 0.532351 0.0605629 0.260312
2815 1 0.563051 0.0680217 0.274127
1154 2 0.536404 0.349684 0.200934
1385 2 0.517967 0.182557 0.178382
1422 2 0.613635 0.349301 0.3051
1836 2 0.582072 0.12927 0.181923
1153 1 0.527512 0.380056 0.214628
1227 2 0.583287 0.263464 0.237607
1396 1 0.559322 0.20035 0.0572259
1386 2 0.565995 0.202616 0.162098
1835 2 0.614577 0.163069 0.209767
1162 1 0.532418 0.0637041 0.450081
1225 1 0.555579 0.262086 0.258087
1397 2 0.538427 0.22778 0.0571115
1220 2 0.517649 0.270889 0.364358
1219 1 0.55141 0.266456 0.358917
1164 2 0.558551 0.0559032 0.428981
1434 2 0.604384 0.450639 0.298154
1384 1 0.537995 0.186139 0.150543
1399 1 0.532887 0.133447 0.355972
1221 2 0.553471 0.254533 0.326628
1400 2 0.556548 0.130306 0.331086
1343 2 0.624563 0.220407 0.42676
1342 1 0.594659 0.203602 0.423242
1344 2 0.574503 0.225401 0.405705
1177 1 0.620074 0.140178 0.494529
1157 2 0.604994 0.0603795 0.325945
1401 2 0.55119 0.139188 0.384627
1155 2 0.553246 0.387637 0.236292
1179 2 0.610326 0.14583 0.461939
1398 2 0.555683 0.186842 0.0887431
1432 1 0.58931 0.419831 0.29459
1156 1 0.6098 0.0694029 0.358877
1058 2 0.601919 0.460048 0.410805
1057 1 0.57859 0.434709 0.41246
1433 2 0.567767 0.417591 0.321421
1059 2 0.597322 0.405844 0.414686
1163 2 0.547632 0.075453 0.478708
1421 2 0.616717 0.303419 0.334418
1226 2 0.529796 0.274052 0.238566
1834 1 0.595475 0.134574 0.213249
4994 2 0.604918 0.16535 0.0125748
5433 2 0.622923 0.348409 0.00228184
2995 1 0.584187 0.496294 0.0134041
2996 2 0.584556 0.463909 0.0252411
6813 2 0.556974 0.49746 0.492259
947 2 0.647546 0.275867 0.177035
2831 2 0.640908 0.0117388 0.237118
2830 1 0.66131 0.0110656 0.264909
1420 1 0.63593 0.329318 0.322205
996 5 0.661353 0.106112 0.0968825
994 5 0.636367 0.181632 0.105818
958 6 0.655526 0.369149 0.136077
957 5 0.641088 0.433529 0.125445
1158 2 0.630224 0.0447578 0.371702
989 5 0.651656 0.251094 0.0733773
5431 1 0.646228 0.364507 0.0219481
5432 2 0.646733 0.346428 0.0513065
3165 2 0.660841 0.355064 0.373145
3163 1 0.66124 0.361932 0.406934
253 1 0.372657 0.317405 0.336783
937 1 0.363112 0.011856 0.489647
26 5 0.338758 0.229695 0.123201
711 2 0.359753 0.137949 0.446454
22 5 0.337812 0.259581 0.195197
938 2 0.343032 0.0354395 0.474494
20 3 0.343509 0.294573 0.173821
17 3 0.339092 0.337111 0.208284
19 5 0.359954 0.321705 0.240445
18 5 0.363354 0.36773 0.194845
254 2 0.358933 0.346156 0.323591
709 1 0.345933 0.16954 0.446556
860 2 0.364811 0.154432 0.186501
861 2 0.374131 0.120609 0.144747
25 5 0.362724 0.28186 0.091083
4679 2 0.355323 0.250989 0.439114
4272 2 0.34407 0.416214 0.125073
4680 2 0.358792 0.289843 0.401001
4678 1 0.369311 0.28188 0.432859
4290 2 0.359815 0.40597 0.45699
2329 1 0.367344 0.0137584 0.379585
2330 2 0.367877 0.0287164 0.410649
2325 2 0.370916 0.491809 0.113877
3315 2 0.373079 0.450926 0.384164
3313 1 0.363137 0.418571 0.37758
415 1 0.375347 0.0259989 0.1132
941 2 0.497453 0.46851 0.0555219
689 2 0.425835 0.262264 0.388428
896 2 0.417603 0.0715922 0.201842
851 2 0.414589 0.294075 0.489944
898 1 0.381595 0.463973 0.237714
255 2 0.406638 0.323262 0.336797
899 2 0.393226 0.433227 0.248126
416 2 0.402406 0.0307989 0.0923721
688 1 0.457709 0.249568 0.384981
21 5 0.383315 0.291791 0.163181
897 2 0.415087 0.0258703 0.231464
895 1 0.437202 0.0462476 0.214591
690 2 0.454159 0.223096 0.363172
859 1 0.39023 0.138813 0.16921
945 2 0.499776 0.291812 0.494736
900 2 0.384606 0.463178 0.203373
4748 2 0.474109 0.434617 0.401038
4747 1 0.462779 0.424357 0.370129
4668 2 0.408643 0.345622 0.0067327
4666 1 0.428938 0.317967 0.01025
4709 2 0.470676 0.309371 0.170745
4707 2 0.491106 0.0642938 0.0810993
4270 1 0.376362 0.427848 0.128377
4749 2 0.44917 0.452741 0.356052
4288 1 0.379576 0.412941 0.484375
4706 2 0.456669 0.0671083 0.0389041
4430 2 0.492167 0.497593 0.181972
4708 1 0.491566 0.283894 0.180922
4705 1 0.468081 0.0456972 0.063406
4271 2 0.395382 0.405986 0.109686
4289 2 0.378682 0.447299 0.487159
4755 2 0.38273 0.0299493 0.0114829
2659 1 0.437333 0.172389 0.328238
2585 2 0.444537 0.169711 0.207165
2556 2 0.469167 0.385763 0.0903559
2660 2 0.444852 0.16868 0.294791
2554 1 0.447948 0.359999 0.0990155
2584 1 0.4656 0.183258 0.230868
2331 2 0.394176 0.0275504 0.362887
2555 2 0.441953 0.343407 0.0693879
2586 2 0.46074 0.217299 0.228308
2661 2 0.462925 0.156174 0.344703
1252 1 0.43595 0.104524 0.476468
1143 2 0.447045 0.0317546 0.302591
1141 1 0.454058 0.0326316 0.336341
1142 2 0.484203 0.0492373 0.338478
1253 2 0.433938 0.138947 0.476603
1254 2 0.467892 0.0977746 0.465371
1388 2 0.454914 0.401075 0.305807
1389 2 0.470929 0.389221 0.255041
1387 1 0.442775 0.392648 0.274652
5476 1 0.459909 0.20621 0.476492
5478 2 0.487651 0.224319 0.486055
5477 2 0.450913 0.219619 0.446024
3314 2 0.392188 0.402228 0.36875
806 2 0.670607 0.302578 0.416459
807 2 0.704473 0.260085 0.411809
805 1 0.673318 0.268959 0.423627
2832 2 0.673935 0.0430756 0.267143
1890 2 0.693541 0.283287 0.304147
986 5 0.701314 0.302326 0.0460933
1658 2 0.689948 0.119684 0.48859
1000 5 0.679039 0.0692703 0.176725
995 3 0.693772 0.127319 0.111281
966 5 0.741439 0.44023 0.246146
998 4 0.717229 0.114301 0.144158
1657 1 0.719814 0.103249 0.493778
999 3 0.713446 0.0742488 0.154736
1001 5 0.712442 0.0476717 0.122966
956 5 0.696658 0.408772 0.102201
991 4 0.702699 0.20865 0.0997474
955 3 0.67095 0.407011 0.133758
962 5 0.668594 0.442881 0.205133
992 3 0.67616 0.180892 0.116631
961 5 0.723257 0.453175 0.167162
963 4 0.721419 0.393089 0.194858
960 3 0.696864 0.424658 0.180992
993 5 0.679898 0.190959 0.156317
990 5 0.676216 0.206973 0.0343502
959 7 0.682384 0.349183 0.147144
964 3 0.742001 0.401743 0.230757
965 5 0.721266 0.380898 0.259446
1017 5 0.691251 0.113355 0.400224
1018 5 0.696792 0.166431 0.363163
1016 3 0.715766 0.131038 0.372328
1673 2 0.679161 0.00488076 0.415991
985 3 0.723276 0.267807 0.0470485
1015 5 0.693554 0.0717711 0.330256
997 5 0.721719 0.128516 0.0809175
988 3 0.687122 0.230537 0.0664118
1013 3 0.72141 0.101911 0.32616
1014 5 0.707417 0.124909 0.294616
1888 1 0.719077 0.265739 0.289014
1889 2 0.723389 0.281299 0.258547
987 5 0.733315 0.258987 0.007817
1003 5 0.746095 0.0170827 0.192099
5475 2 0.711685 0.0768561 0.0144258
3255 2 0.721814 0.461544 0.493858
3253 1 0.699309 0.486223 0.485285
3331 1 0.713876 0.292987 0.173282
3332 2 0.725276 0.278428 0.144177
3164 2 0.688723 0.382296 0.411293
3580 1 0.669652 0.497585 0.383659
3544 1 0.740513 0.385819 0.00446037
3546 2 0.707498 0.376099 0.00658537
3582 2 0.691678 0.473081 0.37349
3333 2 0.741177 0.309995 0.185709
7070 2 0.670535 0.478015 0.00242221
284 2 0.761016 0.155408 0.184689
285 2 0.77514 0.205558 0.200807
283 1 0.78705 0.173277 0.198543
2361 2 0.873079 0.450926 0.384164
2359 1 0.863137 0.418571 0.37758
1647 2 0.810361 0.35514 0.102887
1004 5 0.790845 0.0537534 0.163202
1019 6 0.752967 0.140963 0.38996
1002 3 0.756962 0.0565096 0.186521
1664 2 0.823858 0.169406 0.420067
1020 7 0.770042 0.110679 0.394954
1207 1 0.872657 0.317405 0.336783
1012 4 0.754277 0.0749741 0.323503
1891 1 0.863112 0.011856 0.489647
984 4 0.752589 0.272912 0.0767759
980 5 0.838758 0.229695 0.123201
1665 2 0.859753 0.137949 0.446454
976 5 0.837812 0.259581 0.195197
982 5 0.806756 0.263716 0.0332151
1646 2 0.764644 0.373619 0.0795909
967 3 0.794706 0.385558 0.231246
1892 2 0.843032 0.0354395 0.474494
974 3 0.843509 0.294573 0.173821
971 3 0.839092 0.337111 0.208284
978 3 0.828775 0.267482 0.109552
977 4 0.822118 0.298885 0.137704
968 5 0.809071 0.414804 0.205638
1006 3 0.78879 0.0626603 0.250797
970 4 0.79906 0.346839 0.216381
973 5 0.859954 0.321705 0.240445
972 5 0.863354 0.36773 0.194845
969 5 0.808083 0.393142 0.269664
1008 5 0.793113 0.0229269 0.260758
1208 2 0.858933 0.346156 0.323591
1716 2 0.75599 0.212058 0.388528
981 3 0.789842 0.254303 0.0696097
1663 1 0.845933 0.16954 0.446556
983 5 0.786939 0.212941 0.0705236
1005 4 0.758001 0.0751605 0.224396
1007 5 0.821915 0.0769414 0.230855
1010 5 0.793989 0.129749 0.294608
1645 1 0.792453 0.384037 0.0971168
1009 3 0.787645 0.089206 0.300859
1011 5 0.817064 0.0758637 0.326275
1714 1 0.759342 0.245945 0.383101
1814 2 0.864811 0.154432 0.186501
1815 2 0.874131 0.120609 0.144747
979 5 0.862724 0.28186 0.091083
1715 2 0.754566 0.24978 0.349168
5419 1 0.784088 0.051894 0.434724
5427 2 0.779388 0.328226 0.40858
5633 2 0.855323 0.250989 0.439114
5421 2 0.775229 0.028651 0.410843
5426 2 0.791325 0.377259 0.387903
5226 2 0.84407 0.416214 0.125073
5425 1 0.769563 0.36127 0.409345
5420 2 0.754865 0.0582039 0.451906
5634 2 0.858792 0.289843 0.401001
5632 1 0.869311 0.28188 0.432859
5244 2 0.859815 0.40597 0.45699
3575 2 0.805722 0.466058 0.353123
3576 2 0.767554 0.49929 0.332798
3283 1 0.867344 0.0137584 0.379585
3574 1 0.771778 0.468395 0.347518
3284 2 0.867877 0.0287164 0.410649
3279 2 0.870916 0.491809 0.113877
7361 2 0.751131 0.373755 0.473952
298 1 0.93595 0.104524 0.476468
189 2 0.947045 0.0317546 0.302591
187 1 0.954058 0.0326316 0.336341
188 2 0.984203 0.0492373 0.338478
299 2 0.933938 0.138947 0.476603
300 2 0.967892 0.0977746 0.465371
434 2 0.954914 0.401075 0.305807
435 2 0.970929 0.389221 0.255041
433 1 0.942775 0.392648 0.274652
4522 1 0.959909 0.20621 0.476492
4524 2 0.987651 0.224319 0.486055
4523 2 0.950913 0.219619 0.446024
2360 2 0.892188 0.402228 0.36875
1369 1 0.875347 0.0259989 0.1132
1895 2 0.997453 0.46851 0.0555219
1643 2 0.925835 0.262264 0.388428
1850 2 0.917603 0.0715922 0.201842
1805 2 0.914589 0.294075 0.489944
1852 1 0.881595 0.463973 0.237714
1209 2 0.906638 0.323262 0.336797
1853 2 0.893226 0.433227 0.248126
1370 2 0.902406 0.0307989 0.0923721
1642 1 0.957709 0.249568 0.384981
975 5 0.883315 0.291791 0.163181
1851 2 0.915087 0.0258703 0.231464
1849 1 0.937202 0.0462476 0.214591
1644 2 0.954159 0.223096 0.363172
1813 1 0.89023 0.138813 0.16921
1899 2 0.999776 0.291812 0.494736
1854 2 0.884606 0.463178 0.203373
5702 2 0.974109 0.434617 0.401038
5701 1 0.962779 0.424357 0.370129
5622 2 0.908643 0.345622 0.0067327
5620 1 0.928938 0.317967 0.01025
5663 2 0.970676 0.309371 0.170745
5661 2 0.991106 0.0642938 0.0810993
5224 1 0.876362 0.427848 0.128377
5703 2 0.94917 0.452741 0.356052
5242 1 0.879576 0.412941 0.484375
5660 2 0.956669 0.0671083 0.0389041
5384 2 0.992167 0.497593 0.181972
5662 1 0.991566 0.283894 0.180922
5659 1 0.968081 0.0456972 0.063406
5225 2 0.895382 0.405986 0.109686
5243 2 0.878682 0.447299 0.487159
5709 2 0.88273 0.0299493 0.0114829
3613 1 0.937333 0.172389 0.328238
3539 2 0.944537 0.169711 0.207165
3510 2 0.969167 0.385763 0.0903559
3614 2 0.944852 0.16868 0.294791
3508 1 0.947948 0.359999 0.0990155
3538 1 0.9656 0.183258 0.230868
3285 2 0.894176 0.0275504 0.362887
3509 2 0.941953 0.343407 0.0693879
3540 2 0.96074 0.217299 0.228308
3615 2 0.962925 0.156174 0.344703
224 2 0.104918 0.16535 0.512575
663 2 0.122923 0.348409 0.502282
4016 2 0.0364041 0.349684 0.700934
4247 2 0.0179667 0.182557 0.678382
4284 2 0.113635 0.349301 0.8051
4698 2 0.0820722 0.12927 0.681923
4015 1 0.0275124 0.380056 0.714628
4089 2 0.0832868 0.263464 0.737607
4258 1 0.0593217 0.20035 0.557226
4248 2 0.0659952 0.202616 0.662098
4697 2 0.114577 0.163069 0.709767
4024 1 0.0324179 0.0637041 0.950081
4087 1 0.0555793 0.262086 0.758087
4259 2 0.0384275 0.22778 0.557111
4082 2 0.0176493 0.270889 0.864358
4081 1 0.0514098 0.266456 0.858917
4026 2 0.058551 0.0559032 0.928981
4296 2 0.104384 0.450639 0.798154
4246 1 0.0379951 0.186139 0.650543
4261 1 0.0328874 0.133447 0.855972
4083 2 0.0534707 0.254533 0.826628
4262 2 0.0565475 0.130306 0.831086
4205 2 0.124563 0.220407 0.92676
4204 1 0.0946591 0.203602 0.923242
4206 2 0.0745026 0.225401 0.905705
4039 1 0.120074 0.140178 0.994529
4019 2 0.104994 0.0603795 0.825945
4263 2 0.05119 0.139188 0.884627
4017 2 0.053246 0.387637 0.736292
4041 2 0.110326 0.14583 0.961939
4260 2 0.0556835 0.186842 0.588743
4294 1 0.0893102 0.419831 0.79459
4018 1 0.1098 0.0694029 0.858877
3920 2 0.101919 0.460048 0.910805
3919 1 0.0785903 0.434709 0.91246
4295 2 0.0677675 0.417591 0.821421
3921 2 0.0973221 0.405844 0.914686
4025 2 0.0476318 0.075453 0.978708
4283 2 0.116717 0.303419 0.834418
4088 2 0.0297965 0.274052 0.738566
4696 1 0.0954746 0.134574 0.713249
2043 2 0.0569739 0.49746 0.992259
5857 1 0.0841866 0.496294 0.513404
5858 2 0.0845565 0.463909 0.525241
1848 2 0.000652273 0.267976 0.651715
1840 1 0.0621811 0.0820789 0.556431
1841 2 0.0701657 0.0515155 0.542606
1842 2 0.0815221 0.104739 0.539069
1567 1 0.0195531 0.479276 0.671798
1569 2 0.0134595 0.447407 0.683473
5712 2 0.0183883 0.453952 0.60373
5716 1 0.116425 0.262817 0.669946
5689 1 0.0680697 0.338149 0.603402
5718 2 0.0997005 0.288468 0.654093
5690 2 0.0922899 0.361782 0.610026
5691 2 0.0497873 0.351554 0.57742
5714 2 0.035126 0.289343 0.953281
5710 1 0.017826 0.445021 0.570429
5713 1 0.0288625 0.276319 0.984588
7630 1 0.0970465 0.041292 0.642882
7632 2 0.0733224 0.0206376 0.65701
7631 2 0.0813809 0.0548731 0.615329
7586 2 0.0759921 0.0925901 0.753684
7587 2 0.0323506 0.0605629 0.760312
7585 1 0.063051 0.0680217 0.774127
661 1 0.146228 0.364507 0.521948
705 2 0.211685 0.0768561 0.514426
662 2 0.146733 0.346428 0.551306
4752 2 0.193541 0.283287 0.804147
3848 5 0.201314 0.302326 0.546093
4282 1 0.13593 0.329318 0.822205
4520 2 0.189948 0.119684 0.98859
3858 5 0.161353 0.106112 0.596883
3862 5 0.179039 0.0692703 0.676725
3857 3 0.193772 0.127319 0.611281
3828 5 0.241439 0.44023 0.746146
3856 5 0.136367 0.181632 0.605818
3860 4 0.217229 0.114301 0.644158
4519 1 0.219814 0.103249 0.993778
3861 3 0.213446 0.0742488 0.654736
3863 5 0.212442 0.0476717 0.622966
3818 5 0.196658 0.408772 0.602201
3820 6 0.155526 0.369149 0.636077
3819 5 0.141088 0.433529 0.625445
3853 4 0.202699 0.20865 0.599747
3817 3 0.17095 0.407011 0.633758
3824 5 0.168594 0.442881 0.705133
3854 3 0.17616 0.180892 0.616631
3823 5 0.223257 0.453175 0.667162
3825 4 0.221419 0.393089 0.694858
3822 3 0.196864 0.424658 0.680992
3855 5 0.179898 0.190959 0.656317
3852 5 0.176216 0.206973 0.53435
3821 7 0.182384 0.349183 0.647144
3826 3 0.242001 0.401743 0.730757
3827 5 0.221266 0.380898 0.759446
4020 2 0.130224 0.0447578 0.871702
3851 5 0.151656 0.251094 0.573377
3879 5 0.191251 0.113355 0.900224
3880 5 0.196792 0.166431 0.863163
3878 3 0.215766 0.131038 0.872328
4535 2 0.179161 0.00488076 0.915991
3847 3 0.223276 0.267807 0.547048
3877 5 0.193554 0.0717711 0.830256
3859 5 0.221719 0.128516 0.580918
3850 3 0.187122 0.230537 0.566412
3875 3 0.22141 0.101911 0.82616
3876 5 0.207417 0.124909 0.794616
4750 1 0.219077 0.265739 0.789014
4751 2 0.223389 0.281299 0.758547
3849 5 0.233315 0.258987 0.507817
3865 5 0.246095 0.0170827 0.692099
2300 2 0.170535 0.478015 0.502422
6117 2 0.221814 0.461544 0.993858
6115 1 0.199309 0.486223 0.985285
6193 1 0.213876 0.292987 0.673282
6194 2 0.225276 0.278428 0.644177
6026 2 0.188723 0.382296 0.911293
6442 1 0.169652 0.497585 0.883659
6406 1 0.240513 0.385819 0.50446
6408 2 0.207498 0.376099 0.506585
6027 2 0.160841 0.355064 0.873145
6025 1 0.16124 0.361932 0.906934
6444 2 0.191678 0.473081 0.87349
6195 2 0.241177 0.309995 0.685709
5576 2 0.170607 0.302578 0.916459
5577 2 0.204473 0.260085 0.911809
5717 2 0.147546 0.275867 0.677035
5575 1 0.173318 0.268959 0.923627
7602 2 0.173935 0.0430756 0.767143
7601 2 0.140908 0.0117388 0.737118
7600 1 0.16131 0.0110656 0.764909
649 1 0.284088 0.051894 0.934724
657 2 0.279388 0.328226 0.90858
651 2 0.275229 0.028651 0.910843
656 2 0.291325 0.377259 0.887903
655 1 0.269563 0.36127 0.909345
650 2 0.254865 0.0582039 0.951906
4509 2 0.310361 0.35514 0.602887
3866 5 0.290845 0.0537534 0.663202
3881 6 0.252967 0.140963 0.88996
3864 3 0.256962 0.0565096 0.686521
4526 2 0.323858 0.169406 0.920067
3882 7 0.270042 0.110679 0.894954
3874 4 0.254277 0.0749741 0.823503
3846 4 0.252589 0.272912 0.576776
3844 5 0.306756 0.263716 0.533215
4508 2 0.264644 0.373619 0.579591
3829 3 0.294706 0.385558 0.731246
3840 3 0.328775 0.267482 0.609552
3839 4 0.322118 0.298885 0.637704
3830 5 0.309071 0.414804 0.705638
3868 3 0.28879 0.0626603 0.750797
3832 4 0.29906 0.346839 0.716381
3831 5 0.308083 0.393142 0.769664
3870 5 0.293113 0.0229269 0.760758
4578 2 0.25599 0.212058 0.888528
3843 3 0.289842 0.254303 0.56961
3845 5 0.286939 0.212941 0.570524
3867 4 0.258001 0.0751605 0.724396
3869 5 0.321915 0.0769414 0.730855
3872 5 0.293989 0.129749 0.794608
4507 1 0.292453 0.384037 0.597117
3871 3 0.287645 0.089206 0.800859
3873 5 0.317064 0.0758637 0.826275
4576 1 0.259342 0.245945 0.883101
4577 2 0.254566 0.24978 0.849168
2591 2 0.251131 0.373755 0.973952
6437 2 0.305722 0.466058 0.853123
6438 2 0.267554 0.49929 0.832798
6436 1 0.271778 0.468395 0.847518
5054 2 0.261016 0.155408 0.684689
5055 2 0.27514 0.205558 0.700807
5053 1 0.28705 0.173277 0.698543
894 2 0.500652 0.267976 0.651715
886 1 0.562181 0.0820789 0.556431
887 2 0.570166 0.0515155 0.542606
888 2 0.581522 0.104739 0.539069
613 1 0.519553 0.479276 0.671798
615 2 0.513459 0.447407 0.683473
4758 2 0.518388 0.453952 0.60373
4762 1 0.616425 0.262817 0.669946
4735 1 0.56807 0.338149 0.603402
4764 2 0.599701 0.288468 0.654093
4736 2 0.59229 0.361782 0.610026
4737 2 0.549787 0.351554 0.57742
4760 2 0.535126 0.289343 0.953281
4756 1 0.517826 0.445021 0.570429
4759 1 0.528863 0.276319 0.984588
6676 1 0.597046 0.041292 0.642882
6678 2 0.573322 0.0206376 0.65701
6677 2 0.581381 0.0548731 0.615329
6632 2 0.575992 0.0925901 0.753684
6633 2 0.532351 0.0605629 0.760312
6631 1 0.563051 0.0680217 0.774127
1178 2 0.604918 0.16535 0.512575
1617 2 0.622923 0.348409 0.502282
4970 2 0.536404 0.349684 0.700934
5201 2 0.517967 0.182557 0.678382
5238 2 0.613635 0.349301 0.8051
5652 2 0.582072 0.12927 0.681923
4969 1 0.527512 0.380056 0.714628
5043 2 0.583287 0.263464 0.737607
5212 1 0.559322 0.20035 0.557226
5202 2 0.565995 0.202616 0.662098
5651 2 0.614577 0.163069 0.709767
4978 1 0.532418 0.0637041 0.950081
5041 1 0.555579 0.262086 0.758087
5213 2 0.538427 0.22778 0.557111
5036 2 0.517649 0.270889 0.864358
5035 1 0.55141 0.266456 0.858917
4980 2 0.558551 0.0559032 0.928981
5250 2 0.604384 0.450639 0.798154
5200 1 0.537995 0.186139 0.650543
5215 1 0.532887 0.133447 0.855972
5037 2 0.553471 0.254533 0.826628
5216 2 0.556548 0.130306 0.831086
5159 2 0.624563 0.220407 0.92676
5158 1 0.594659 0.203602 0.923242
5160 2 0.574503 0.225401 0.905705
4993 1 0.620074 0.140178 0.994529
4973 2 0.604994 0.0603795 0.825945
5217 2 0.55119 0.139188 0.884627
4971 2 0.553246 0.387637 0.736292
4995 2 0.610326 0.14583 0.961939
5214 2 0.555683 0.186842 0.588743
5248 1 0.58931 0.419831 0.79459
4972 1 0.6098 0.0694029 0.858877
4874 2 0.601919 0.460048 0.910805
4873 1 0.57859 0.434709 0.91246
5249 2 0.567767 0.417591 0.821421
4875 2 0.597322 0.405844 0.914686
4979 2 0.547632 0.075453 0.978708
5237 2 0.616717 0.303419 0.834418
5042 2 0.529796 0.274052 0.738566
5650 1 0.595475 0.134574 0.713249
2997 2 0.556974 0.49746 0.992259
6811 1 0.584187 0.496294 0.513404
6812 2 0.584556 0.463909 0.525241
4763 2 0.647546 0.275867 0.677035
6647 2 0.640908 0.0117388 0.737118
6646 1 0.66131 0.0110656 0.764909
1615 1 0.646228 0.364507 0.521948
1616 2 0.646733 0.346428 0.551306
5236 1 0.63593 0.329318 0.822205
4812 5 0.661353 0.106112 0.596883
4810 5 0.636367 0.181632 0.605818
4774 6 0.655526 0.369149 0.636077
4773 5 0.641088 0.433529 0.625445
4974 2 0.630224 0.0447578 0.871702
4805 5 0.651656 0.251094 0.573377
6981 2 0.660841 0.355064 0.873145
6979 1 0.66124 0.361932 0.906934
863 2 0.355323 0.250989 0.939114
456 2 0.34407 0.416214 0.625073
864 2 0.358792 0.289843 0.901001
862 1 0.369311 0.28188 0.932859
474 2 0.359815 0.40597 0.95699
4069 1 0.372657 0.317405 0.836783
4753 1 0.363112 0.011856 0.989647
3842 5 0.338758 0.229695 0.623201
4527 2 0.359753 0.137949 0.946454
3838 5 0.337812 0.259581 0.695197
4754 2 0.343032 0.0354395 0.974494
3836 3 0.343509 0.294573 0.673821
3833 3 0.339092 0.337111 0.708284
3835 5 0.359954 0.321705 0.740445
3834 5 0.363354 0.36773 0.694845
4070 2 0.358933 0.346156 0.823591
4525 1 0.345933 0.16954 0.946556
4676 2 0.364811 0.154432 0.686501
4677 2 0.374131 0.120609 0.644747
3841 5 0.362724 0.28186 0.591083
6145 1 0.367344 0.0137584 0.879585
6146 2 0.367877 0.0287164 0.910649
6141 2 0.370916 0.491809 0.613877
7131 2 0.373079 0.450926 0.884164
7129 1 0.363137 0.418571 0.87758
932 2 0.474109 0.434617 0.901038
931 1 0.462779 0.424357 0.870129
852 2 0.408643 0.345622 0.506733
850 1 0.428938 0.317967 0.51025
893 2 0.470676 0.309371 0.670745
891 2 0.491106 0.0642938 0.581099
454 1 0.376362 0.427848 0.628377
933 2 0.44917 0.452741 0.856052
472 1 0.379576 0.412941 0.984375
890 2 0.456669 0.0671083 0.538904
614 2 0.492167 0.497593 0.681972
892 1 0.491566 0.283894 0.680922
889 1 0.468081 0.0456972 0.563406
455 2 0.395382 0.405986 0.609686
473 2 0.378682 0.447299 0.987159
939 2 0.38273 0.0299493 0.511483
4231 1 0.375347 0.0259989 0.6132
4757 2 0.497453 0.46851 0.555522
4505 2 0.425835 0.262264 0.888428
4712 2 0.417603 0.0715922 0.701842
4667 2 0.414589 0.294075 0.989944
4714 1 0.381595 0.463973 0.737714
4071 2 0.406638 0.323262 0.836797
4715 2 0.393226 0.433227 0.748126
4232 2 0.402406 0.0307989 0.592372
4504 1 0.457709 0.249568 0.884981
3837 5 0.383315 0.291791 0.663181
4713 2 0.415087 0.0258703 0.731464
4711 1 0.437202 0.0462476 0.714591
4506 2 0.454159 0.223096 0.863172
4675 1 0.39023 0.138813 0.66921
4761 2 0.499776 0.291812 0.994736
4716 2 0.384606 0.463178 0.703373
6475 1 0.437333 0.172389 0.828238
6401 2 0.444537 0.169711 0.707165
6372 2 0.469167 0.385763 0.590356
6476 2 0.444852 0.16868 0.794791
6370 1 0.447948 0.359999 0.599016
6400 1 0.4656 0.183258 0.730868
6147 2 0.394176 0.0275504 0.862887
6371 2 0.441953 0.343407 0.569388
6402 2 0.46074 0.217299 0.728308
6477 2 0.462925 0.156174 0.844703
1660 1 0.459909 0.20621 0.976492
1662 2 0.487651 0.224319 0.986055
1661 2 0.450913 0.219619 0.946024
5068 1 0.43595 0.104524 0.976468
4959 2 0.447045 0.0317546 0.802591
4957 1 0.454058 0.0326316 0.836341
4958 2 0.484203 0.0492373 0.838478
5069 2 0.433938 0.138947 0.976603
5070 2 0.467892 0.0977746 0.965371
5204 2 0.454914 0.401075 0.805807
5205 2 0.470929 0.389221 0.755041
5203 1 0.442775 0.392648 0.774652
7130 2 0.392188 0.402228 0.86875
4622 2 0.670607 0.302578 0.916459
4623 2 0.704473 0.260085 0.911809
4621 1 0.673318 0.268959 0.923627
6648 2 0.673935 0.0430756 0.767143
1659 2 0.711685 0.0768561 0.514426
5706 2 0.693541 0.283287 0.804147
4802 5 0.701314 0.302326 0.546093
5474 2 0.689948 0.119684 0.98859
4816 5 0.679039 0.0692703 0.676725
4811 3 0.693772 0.127319 0.611281
4782 5 0.741439 0.44023 0.746146
4814 4 0.717229 0.114301 0.644158
5473 1 0.719814 0.103249 0.993778
4815 3 0.713446 0.0742488 0.654736
4817 5 0.712442 0.0476717 0.622966
4772 5 0.696658 0.408772 0.602201
4807 4 0.702699 0.20865 0.599747
4771 3 0.67095 0.407011 0.633758
4778 5 0.668594 0.442881 0.705133
4808 3 0.67616 0.180892 0.616631
4777 5 0.723257 0.453175 0.667162
4779 4 0.721419 0.393089 0.694858
4776 3 0.696864 0.424658 0.680992
4809 5 0.679898 0.190959 0.656317
4806 5 0.676216 0.206973 0.53435
4775 7 0.682384 0.349183 0.647144
4780 3 0.742001 0.401743 0.730757
4781 5 0.721266 0.380898 0.759446
4833 5 0.691251 0.113355 0.900224
4834 5 0.696792 0.166431 0.863163
4832 3 0.715766 0.131038 0.872328
5489 2 0.679161 0.00488076 0.915991
4801 3 0.723276 0.267807 0.547048
4831 5 0.693554 0.0717711 0.830256
4813 5 0.721719 0.128516 0.580918
4804 3 0.687122 0.230537 0.566412
4829 3 0.72141 0.101911 0.82616