ITEM: TIMESTEP
11000
ITEM: NUMBER OF ATOMS
2040
ITEM: BOX BOUNDS pp pp pp
-6.8884268366858565e+00 2.0665280510057570e+01
-6.8884268366858565e+00 2.0665280510057570e+01
-6.8884268366858565e+00 2.0665280510057570e+01
ITEM: ATOMS id type xs ys zs
271 1 0.0106761 0.227703 0.243966
302 2 0.123773 0.11792 0.38095
718 1 0.0750002 0.0236736 0.214257
133 1 0.0343566 0.282611 0.14628
434 2 0.102813 0.329104 0.435253
433 1 0.118624 0.299961 0.424882
303 2 0.0789977 0.120344 0.412701
719 2 0.0966735 0.0202455 0.24119
134 2 0.0618267 0.267243 0.131582
273 2 0.0167958 0.261896 0.243509
210 2 0.0495371 0.143787 0.269122
615 2 0.118607 0.281819 0.0779551
301 1 0.11238 0.129884 0.41151
208 1 0.0665407 0.150601 0.298639
209 2 0.0986552 0.138532 0.293176
720 2 0.0695626 0.0578934 0.211754
135 2 0.00701762 0.270024 0.128931
613 1 0.11874 0.25039 0.0927554
451 1 0.00927591 0.141177 0.410084
453 2 0.0280583 0.168739 0.400367
435 2 0.119048 0.279754 0.453137
4478 2 0.046483 0.199288 0.194628
4479 2 0.0981139 0.189749 0.17844
4040 2 0.116511 0.0167168 0.0541489
4477 1 0.0657887 0.177274 0.175934
2590 1 0.090309 0.054848 0.103993
2591 2 0.0721677 0.0829572 0.113352
2592 2 0.0743247 0.028454 0.119952
2108 2 0.00144525 0.126819 0.193403
1843 1 0.0234104 0.131575 0.105015
1845 2 0.0320108 0.137269 0.0718422
1844 2 0.0463104 0.150252 0.123279
1806 2 0.116905 0.322612 0.357768
1899 2 0.019493 0.258166 0.431414
1665 2 0.00255105 0.0956164 0.321748
5690 2 0.0789731 0.205712 0.366364
5691 2 0.0727813 0.252044 0.39524
5689 1 0.0554922 0.22396 0.384322
7619 2 0.00408098 0.0372932 0.371231
7620 2 0.0280681 0.0635791 0.413094
7618 1 0.0223989 0.0318091 0.400235
430 1 0.172598 0.194049 0.176755
46 5 0.197961 0.063783 0.173754
431 2 0.166925 0.174648 0.148501
58 4 0.240841 0.177259 0.304434
49 5 0.221403 0.0685024 0.255649
48 3 0.248514 0.0839372 0.228232
882 2 0.157526 0.0711423 0.306233
56 5 0.234983 0.220416 0.244692
447 2 0.143078 0.102217 0.0879594
472 1 0.213677 0.297216 0.132637
473 2 0.229021 0.317552 0.156255
474 2 0.237024 0.272341 0.126077
712 1 0.138409 0.0127162 0.290142
445 1 0.159046 0.133063 0.0885923
432 2 0.190385 0.173263 0.198165
43 5 0.24235 0.0505214 0.0879257
62 3 0.236 0.212568 0.38006
47 5 0.244347 0.0165119 0.188493
51 4 0.235182 0.125213 0.228388
446 2 0.175279 0.135098 0.0579461
881 2 0.181307 0.120161 0.299132
61 5 0.176211 0.187969 0.33262
45 3 0.238425 0.0565085 0.180379
63 5 0.208219 0.224005 0.408475
59 3 0.214808 0.202627 0.328278
444 2 0.142062 0.238617 0.0288731
614 2 0.140433 0.253546 0.119705
880 1 0.153909 0.104812 0.313984
42 5 0.235575 0.109758 0.118719
60 5 0.206803 0.241763 0.315732
66 7 0.245282 0.150603 0.376174
4258 1 0.152419 0.240549 0.49577
4259 2 0.168677 0.210404 0.489957
4286 2 0.228642 0.0249131 0.458337
4232 2 0.163196 0.133839 0.453144
4231 1 0.184023 0.141342 0.479917
4233 2 0.204009 0.113163 0.483568
4465 1 0.247658 0.0855186 0.368212
2363 2 0.12673 0.0155054 0.401169
2362 1 0.161371 0.0165256 0.398761
2364 2 0.167709 0.0405262 0.374458
50 5 0.285355 0.0698419 0.241989
38 3 0.306236 0.0996419 0.0919914
44 4 0.269789 0.0660191 0.153233
41 3 0.260999 0.0772408 0.113668
53 5 0.262173 0.169779 0.193595
37 4 0.321246 0.12829 0.119772
52 3 0.266462 0.152593 0.231089
939 2 0.325947 0.00234548 0.417764
22 5 0.334448 0.302794 0.295602
54 5 0.306743 0.143075 0.234873
657 2 0.262598 0.325349 0.0415333
20 3 0.336171 0.310598 0.255067
40 5 0.331062 0.0673765 0.0833861
692 2 0.33464 0.32474 0.074142
691 1 0.350884 0.31941 0.104383
693 2 0.327668 0.328702 0.128497
65 6 0.254146 0.179028 0.395571
935 2 0.320102 0.27453 0.437698
689 2 0.34671 0.185037 0.470354
55 3 0.252966 0.19186 0.268693
35 5 0.36128 0.166183 0.0787126
934 1 0.324405 0.307399 0.427308
761 2 0.273281 0.202805 0.480727
57 5 0.287553 0.212052 0.279682
39 5 0.296873 0.114972 0.0545084
760 1 0.300206 0.214734 0.499154
23 4 0.340619 0.276541 0.229136
19 5 0.254667 0.315354 0.236707
936 2 0.298019 0.324666 0.441884
690 2 0.358909 0.167839 0.419617
34 3 0.361388 0.13989 0.110942
688 1 0.372289 0.170967 0.451524
30 4 0.372262 0.205682 0.161121
64 5 0.264945 0.24223 0.377832
4467 2 0.278386 0.0859187 0.352012
4285 1 0.255484 0.0452002 0.466984
4071 2 0.31874 0.248719 0.106808
4466 2 0.254281 0.0710508 0.399093
4578 2 0.287335 0.219965 0.0309943
4070 2 0.292657 0.200697 0.112494
4069 1 0.287951 0.23342 0.101824
4287 2 0.274516 0.0257352 0.488565
2612 2 0.347947 0.0884809 0.290683
2611 1 0.337663 0.0993133 0.322048
2613 2 0.355327 0.0793948 0.344366
1254 2 0.324592 0.028091 0.148374
1238 2 0.319283 0.202576 0.35563
1237 1 0.351963 0.190992 0.353462
1252 1 0.354974 0.0206576 0.163492
1239 2 0.350067 0.163477 0.33234
36 5 0.38797 0.110459 0.0973428
897 2 0.434532 0.0527061 0.265122
24 3 0.379035 0.25801 0.229001
932 2 0.449676 0.225034 0.0568309
29 5 0.436107 0.219439 0.195079
33 5 0.376896 0.14483 0.189749
895 1 0.403539 0.0379416 0.259808
931 1 0.447573 0.254662 0.0748479
943 1 0.486166 0.259706 0.441098
933 2 0.413539 0.259302 0.0800395
27 3 0.398671 0.231908 0.182174
896 2 0.393145 0.0503332 0.229063
32 5 0.426661 0.161566 0.146112
25 5 0.411762 0.282564 0.237424
28 5 0.408617 0.261617 0.155185
944 2 0.479256 0.293689 0.443155
31 3 0.385986 0.165138 0.154608
710 2 0.447919 0.0911929 0.325569
709 1 0.47688 0.0722283 0.322667
26 5 0.378203 0.231346 0.260571
4523 2 0.400226 0.097413 0.434701
4522 1 0.3883 0.065951 0.426055
4714 1 0.459359 0.181026 0.49888
4716 2 0.478537 0.204422 0.481801
4524 2 0.407922 0.0438717 0.44434
4715 2 0.431306 0.176501 0.478896
6631 1 0.443324 0.00474952 0.0913464
1406 2 0.482377 0.154653 0.427453
1342 1 0.458504 0.227732 0.338861
1343 2 0.47985 0.222502 0.365764
1344 2 0.427086 0.231327 0.353241
1226 2 0.496996 0.221722 0.275333
1253 2 0.378837 0.029076 0.13969
4957 1 0.455944 0.0729658 0.00475137
4959 2 0.453478 0.0686538 0.0391338
4958 2 0.460161 0.107191 0.000545921
3063 2 0.481473 0.145431 0.241085
3061 1 0.489978 0.116163 0.224416
467 2 0.0805104 0.34663 0.257566
468 2 0.0658408 0.391977 0.230231
682 1 0.090309 0.554848 0.103993
683 2 0.0721677 0.582957 0.113352
2 5 0.116921 0.435995 0.171553
466 1 0.0532954 0.361925 0.242327
684 2 0.0743247 0.528454 0.119952
200 2 0.00144525 0.626819 0.193403
2210 2 0.123773 0.61792 0.38095
2626 1 0.0750002 0.523674 0.214257
2211 2 0.0789977 0.620344 0.412701
2627 2 0.0966735 0.520246 0.24119
2118 2 0.0495371 0.643787 0.269122
2209 1 0.11238 0.629884 0.41151
2116 1 0.0665407 0.650601 0.298639
2117 2 0.0986552 0.638532 0.293176
2628 2 0.0695626 0.557893 0.211754
2359 1 0.00927591 0.641177 0.410084
2621 2 0.115026 0.491458 0.304569
5947 1 0.124904 0.499608 0.0251029
5948 2 0.116511 0.516717 0.0541489
5949 2 0.0954156 0.498585 0.00676731
1814 2 0.0438117 0.373083 0.0993972
1815 2 0.0310278 0.348114 0.146641
1846 1 0.0358147 0.379557 0.433662
1848 2 0.023081 0.402123 0.410522
1908 2 0.0258703 0.442531 0.149281
1906 1 0.0138001 0.474957 0.1524
1907 2 0.0305173 0.487858 0.179984
1847 2 0.014207 0.381759 0.460774
1813 1 0.0289618 0.378699 0.130297
1902 2 0.045425 0.457713 0.331207
1900 1 0.0738261 0.446582 0.34783
1901 2 0.0695786 0.412189 0.35026
1804 1 0.114538 0.343493 0.330106
5711 2 0.00408098 0.537293 0.371231
5712 2 0.0280681 0.563579 0.413094
5577 2 0.069062 0.370636 0.0357872
5575 1 0.1001 0.357026 0.0434202
5576 2 0.105782 0.366262 0.0764238
5710 1 0.0223989 0.531809 0.400235
3751 1 0.0234104 0.631575 0.105015
3753 2 0.0320108 0.637269 0.0718422
3752 2 0.0463104 0.650252 0.123279
3573 2 0.00255105 0.595616 0.321748
4 6 0.141909 0.395821 0.124651
7 5 0.197714 0.464686 0.164937
104 2 0.164312 0.377578 0.496314
455 2 0.12673 0.515505 0.401169
6 3 0.196046 0.424394 0.1744
9 4 0.226142 0.399065 0.156712
1 3 0.143232 0.404571 0.164446
3 5 0.135403 0.371711 0.188702
8 5 0.205008 0.418728 0.214578
454 1 0.161371 0.516526 0.398761
456 2 0.167709 0.540526 0.374458
480 2 0.178926 0.442357 0.38605
103 1 0.184162 0.4057 0.491629
479 2 0.18729 0.395461 0.413429
5 7 0.175325 0.386341 0.118322
478 1 0.177896 0.40783 0.382355
3921 2 0.165221 0.431935 0.00426795
1954 5 0.197961 0.563783 0.173754
1957 5 0.221403 0.568502 0.255649
1956 3 0.248514 0.583937 0.228232
2790 2 0.157526 0.571142 0.306233
2355 2 0.143078 0.602217 0.0879594
2299 1 0.248609 0.477615 0.316094
2620 1 0.138409 0.512716 0.290142
2353 1 0.159046 0.633063 0.0885923
1951 5 0.24235 0.550521 0.0879257
1955 5 0.244347 0.516512 0.188493
1959 4 0.235182 0.625213 0.228388
2354 2 0.175279 0.635098 0.0579461
2789 2 0.181307 0.620161 0.299132
1953 3 0.238425 0.556508 0.180379
2788 1 0.153909 0.604812 0.313984
1950 5 0.235575 0.609758 0.118719
2622 2 0.16898 0.497286 0.295982
1974 7 0.245282 0.650603 0.376174
6194 2 0.228642 0.524913 0.458337
6140 2 0.163196 0.633839 0.453144
6139 1 0.184023 0.641342 0.479917
6141 2 0.204009 0.613163 0.483568
6373 1 0.247658 0.585519 0.368212
1805 2 0.141196 0.365508 0.333505
11 5 0.276004 0.454124 0.147981
704 2 0.347947 0.588481 0.290683
21 5 0.36385 0.342221 0.251447
655 1 0.277561 0.355739 0.033826
12 5 0.278234 0.398615 0.115277
13 3 0.303304 0.38973 0.191099
16 4 0.29571 0.349648 0.19875
14 5 0.339472 0.394787 0.171596
18 5 0.280476 0.368611 0.268187
703 1 0.337663 0.599313 0.322048
10 3 0.266619 0.413973 0.151879
17 3 0.288439 0.33884 0.240237
656 2 0.252776 0.373745 0.0174455
15 5 0.308272 0.417391 0.221531
705 2 0.355327 0.579395 0.344366
1958 5 0.285355 0.569842 0.241989
1946 3 0.306236 0.599642 0.0919914
1952 4 0.269789 0.566019 0.153233
1949 3 0.260999 0.577241 0.113668
1945 4 0.321246 0.62829 0.119772
1960 3 0.266462 0.652593 0.231089
2847 2 0.325947 0.502345 0.417764
1962 5 0.306743 0.643075 0.234873
1948 5 0.331062 0.567376 0.0833861
2300 2 0.261381 0.498581 0.340674
1943 5 0.36128 0.666183 0.0787126
2845 1 0.316922 0.485894 0.388528
1947 5 0.296873 0.614972 0.0545084
2846 2 0.337432 0.45787 0.387617
1942 3 0.361388 0.63989 0.110942
2301 2 0.266879 0.448247 0.319341
6611 2 0.344616 0.473334 0.0349447
6375 2 0.278386 0.585919 0.352012
6193 1 0.255484 0.5452 0.466984
6374 2 0.254281 0.571051 0.399093
6610 1 0.313559 0.488097 0.0398766
6612 2 0.290893 0.461957 0.0367443
6195 2 0.274516 0.525735 0.488565
3162 2 0.324592 0.528091 0.148374
3160 1 0.354974 0.520658 0.163492
3147 2 0.350067 0.663477 0.33234
924 2 0.393216 0.350235 0.416531
423 2 0.402732 0.449557 0.317595
864 2 0.444231 0.384651 0.108885
677 2 0.393178 0.406512 0.223957
678 2 0.426775 0.444841 0.203438
422 2 0.397384 0.397434 0.30106
923 2 0.423216 0.371158 0.375532
863 2 0.392518 0.380818 0.0907221
421 1 0.380809 0.422618 0.318318
753 2 0.477427 0.489347 0.2833
752 2 0.475084 0.435413 0.29352
922 1 0.420321 0.371005 0.41015
676 1 0.426753 0.413488 0.2184
862 1 0.420664 0.401137 0.0894008
751 1 0.497489 0.461369 0.28794
4724 2 0.426985 0.474576 0.0859205
4723 1 0.443324 0.50475 0.0913464
4725 2 0.47267 0.495942 0.107719
1944 5 0.38797 0.610459 0.0973428
2805 2 0.434532 0.552706 0.265122
1941 5 0.376896 0.64483 0.189749
2803 1 0.403539 0.537942 0.259808
2556 2 0.473492 0.395318 0.0485741
2554 1 0.490548 0.379462 0.022796
2804 2 0.393145 0.550333 0.229063
1940 5 0.426661 0.661566 0.146112
1939 3 0.385986 0.665138 0.154608
2618 2 0.447919 0.591193 0.325569
2617 1 0.47688 0.572228 0.322667
2555 2 0.472386 0.350443 0.0168918
6431 2 0.400226 0.597413 0.434701
6430 1 0.3883 0.565951 0.426055
6432 2 0.407922 0.543872 0.44434
1155 2 0.481473 0.645431 0.241085
1220 2 0.496266 0.362211 0.29382
1219 1 0.462583 0.36896 0.298993
1153 1 0.489978 0.616163 0.224416
1221 2 0.452254 0.384641 0.269765
3066 2 0.422318 0.436742 0.483946
3314 2 0.482377 0.654653 0.427453
3065 2 0.435659 0.4878 0.49924
3161 2 0.378837 0.529076 0.13969
6865 1 0.455944 0.572966 0.00475137
6867 2 0.453478 0.568654 0.0391338
6880 1 0.411479 0.463244 0.00361819
6866 2 0.460161 0.607191 0.000545921
713 2 0.115026 0.991458 0.304569
4039 1 0.124904 0.999608 0.0251029
4041 2 0.0954156 0.998585 0.00676731
2179 1 0.0106761 0.727703 0.243966
2375 2 0.0805104 0.84663 0.257566
2376 2 0.0658408 0.891977 0.230231
2041 1 0.0343566 0.782611 0.14628
2342 2 0.102813 0.829104 0.435253
2341 1 0.118624 0.799961 0.424882
2042 2 0.0618267 0.767243 0.131582
2181 2 0.0167958 0.761896 0.243509
1910 5 0.116921 0.935995 0.171553
2523 2 0.118607 0.781819 0.0779551
2374 1 0.0532954 0.861925 0.242327
2043 2 0.00701762 0.770024 0.128931
2521 1 0.11874 0.75039 0.0927554
2361 2 0.0280583 0.668739 0.400367
2343 2 0.119048 0.779754 0.453137
6386 2 0.046483 0.699288 0.194628
6387 2 0.0981139 0.689749 0.17844
6385 1 0.0657887 0.677274 0.175934
3722 2 0.0438117 0.873083 0.0993972
3723 2 0.0310278 0.848114 0.146641
3754 1 0.0358147 0.879557 0.433662
3756 2 0.023081 0.902123 0.410522
3816 2 0.0258703 0.942531 0.149281
3814 1 0.0138001 0.974957 0.1524
3815 2 0.0305173 0.987858 0.179984
3755 2 0.014207 0.881759 0.460774
3721 1 0.0289618 0.878699 0.130297
3810 2 0.045425 0.957713 0.331207
3808 1 0.0738261 0.946582 0.34783
3809 2 0.0695786 0.912189 0.35026
3714 2 0.116905 0.822612 0.357768
3807 2 0.019493 0.758166 0.431414
3712 1 0.114538 0.843493 0.330106
7598 2 0.0789731 0.705712 0.366364
7485 2 0.069062 0.870636 0.0357872
7483 1 0.1001 0.857026 0.0434202
7484 2 0.105782 0.866262 0.0764238
7599 2 0.0727813 0.752044 0.39524
7597 1 0.0554922 0.72396 0.384322
391 1 0.248609 0.977615 0.316094
714 2 0.16898 0.997286 0.295982
2338 1 0.172598 0.694049 0.176755
2339 2 0.166925 0.674648 0.148501
1966 4 0.240841 0.677259 0.304434
1964 5 0.234983 0.720416 0.244692
1912 6 0.141909 0.895821 0.124651
2380 1 0.213677 0.797216 0.132637
2381 2 0.229021 0.817552 0.156255
1915 5 0.197714 0.964686 0.164937
2012 2 0.164312 0.877578 0.496314
2382 2 0.237024 0.772341 0.126077
1914 3 0.196046 0.924394 0.1744
1917 4 0.226142 0.899065 0.156712
1909 3 0.143232 0.904571 0.164446
1911 5 0.135403 0.871711 0.188702
1916 5 0.205008 0.918728 0.214578
2340 2 0.190385 0.673263 0.198165
2388 2 0.178926 0.942357 0.38605
1970 3 0.236 0.712568 0.38006
2011 1 0.184162 0.9057 0.491629
1969 5 0.176211 0.687969 0.33262
1971 5 0.208219 0.724005 0.408475
1967 3 0.214808 0.702627 0.328278
2352 2 0.142062 0.738617 0.0288731
2522 2 0.140433 0.753546 0.119705
2387 2 0.18729 0.895461 0.413429
1913 7 0.175325 0.886341 0.118322
1968 5 0.206803 0.741763 0.315732
2386 1 0.177896 0.90783 0.382355
5829 2 0.165221 0.931935 0.00426795
6166 1 0.152419 0.740549 0.49577
6167 2 0.168677 0.710404 0.489957
3713 2 0.141196 0.865508 0.333505
392 2 0.261381 0.998581 0.340674
937 1 0.316922 0.985894 0.388528
938 2 0.337432 0.95787 0.387617
393 2 0.266879 0.948247 0.319341
4703 2 0.344616 0.973334 0.0349447
4702 1 0.313559 0.988097 0.0398766
4704 2 0.290893 0.961957 0.0367443
1919 5 0.276004 0.954124 0.147981
1961 5 0.262173 0.669779 0.193595
1930 5 0.334448 0.802794 0.295602
1929 5 0.36385 0.842221 0.251447
2565 2 0.262598 0.825349 0.0415333
1928 3 0.336171 0.810598 0.255067
2600 2 0.33464 0.82474 0.074142
2599 1 0.350884 0.81941 0.104383
2601 2 0.327668 0.828702 0.128497
1973 6 0.254146 0.679028 0.395571
2843 2 0.320102 0.77453 0.437698
2563 1 0.277561 0.855739 0.033826
1920 5 0.278234 0.898615 0.115277
2597 2 0.34671 0.685037 0.470354
1921 3 0.303304 0.88973 0.191099
1963 3 0.252966 0.69186 0.268693
1924 4 0.29571 0.849648 0.19875
1922 5 0.339472 0.894787 0.171596
1926 5 0.280476 0.868611 0.268187
2842 1 0.324405 0.807399 0.427308
2669 2 0.273281 0.702805 0.480727
1965 5 0.287553 0.712052 0.279682
2668 1 0.300206 0.714734 0.499154
1918 3 0.266619 0.913973 0.151879
1925 3 0.288439 0.83884 0.240237
1931 4 0.340619 0.776541 0.229136
1927 5 0.254667 0.815354 0.236707
2844 2 0.298019 0.824666 0.441884
2564 2 0.252776 0.873745 0.0174455
2598 2 0.358909 0.667839 0.419617
1923 5 0.308272 0.917391 0.221531
2596 1 0.372289 0.670967 0.451524
1938 4 0.372262 0.705682 0.161121
1972 5 0.264945 0.74223 0.377832
5979 2 0.31874 0.748719 0.106808
6486 2 0.287335 0.719965 0.0309943
5978 2 0.292657 0.700697 0.112494
5977 1 0.287951 0.73342 0.101824
3146 2 0.319283 0.702576 0.35563
3145 1 0.351963 0.690992 0.353462
648 2 0.473492 0.895318 0.0485741
646 1 0.490548 0.879462 0.022796
647 2 0.472386 0.850443 0.0168918
2832 2 0.393216 0.850235 0.416531
2331 2 0.402732 0.949557 0.317595
2772 2 0.444231 0.884651 0.108885
1932 3 0.379035 0.75801 0.229001
2840 2 0.449676 0.725034 0.0568309
1937 5 0.436107 0.719439 0.195079
2585 2 0.393178 0.906512 0.223957
2586 2 0.426775 0.944841 0.203438
2839 1 0.447573 0.754662 0.0748479
2851 1 0.486166 0.759706 0.441098
2330 2 0.397384 0.897434 0.30106
2831 2 0.423216 0.871158 0.375532
2841 2 0.413539 0.759302 0.0800395
2771 2 0.392518 0.880818 0.0907221
1935 3 0.398671 0.731908 0.182174
2329 1 0.380809 0.922618 0.318318
2661 2 0.477427 0.989347 0.2833
1933 5 0.411762 0.782564 0.237424
1936 5 0.408617 0.761617 0.155185
2660 2 0.475084 0.935413 0.29352
2852 2 0.479256 0.793689 0.443155
2830 1 0.420321 0.871005 0.41015
2584 1 0.426753 0.913488 0.2184
2770 1 0.420664 0.901137 0.0894008
2659 1 0.497489 0.961369 0.28794
1934 5 0.378203 0.731346 0.260571
6632 2 0.426985 0.974576 0.0859205
6622 1 0.459359 0.681026 0.49888
6633 2 0.47267 0.995942 0.107719
6624 2 0.478537 0.704422 0.481801
6623 2 0.431306 0.676501 0.478896
1158 2 0.422318 0.936742 0.483946
1157 2 0.435659 0.9878 0.49924
4972 1 0.411479 0.963244 0.00361819
3128 2 0.496266 0.862211 0.29382
3250 1 0.458504 0.727732 0.338861
3251 2 0.47985 0.722502 0.365764
3127 1 0.462583 0.86896 0.298993
3252 2 0.427086 0.731327 0.353241
3129 2 0.452254 0.884641 0.269765
3134 2 0.496996 0.721722 0.275333
662 2 0.046483 0.199288 0.694628
663 2 0.0981139 0.189749 0.67844
224 2 0.116511 0.0167168 0.554149
661 1 0.0657887 0.177274 0.675934
4087 1 0.0106761 0.227703 0.743966
4118 2 0.123773 0.11792 0.88095
4534 1 0.0750002 0.0236736 0.714257
3949 1 0.0343566 0.282611 0.64628
4250 2 0.102813 0.329104 0.935253
4249 1 0.118624 0.299961 0.924882
4119 2 0.0789977 0.120344 0.912701
4535 2 0.0966735 0.0202455 0.74119
3950 2 0.0618267 0.267243 0.631582
4089 2 0.0167958 0.261896 0.743509
4026 2 0.0495371 0.143787 0.769122
4431 2 0.118607 0.281819 0.577955
4117 1 0.11238 0.129884 0.91151
4024 1 0.0665407 0.150601 0.798639
4025 2 0.0986552 0.138532 0.793176
4536 2 0.0695626 0.0578934 0.711754
3951 2 0.00701762 0.270024 0.628931
4429 1 0.11874 0.25039 0.592755
4267 1 0.00927591 0.141177 0.910084
4269 2 0.0280583 0.168739 0.900367
4251 2 0.119048 0.279754 0.953137
6406 1 0.090309 0.054848 0.603993
6407 2 0.0721677 0.0829572 0.613352
6408 2 0.0743247 0.028454 0.619952
5924 2 0.00144525 0.126819 0.693403
1874 2 0.0789731 0.205712 0.866364
1875 2 0.0727813 0.252044 0.89524
1873 1 0.0554922 0.22396 0.884322
5659 1 0.0234104 0.131575 0.605015
5661 2 0.0320108 0.137269 0.571842
5660 2 0.0463104 0.150252 0.623279
5622 2 0.116905 0.322612 0.857768
5715 2 0.019493 0.258166 0.931414
5481 2 0.00255105 0.0956164 0.821748
3803 2 0.00408098 0.0372932 0.871231
3804 2 0.0280681 0.0635791 0.913094
3802 1 0.0223989 0.0318091 0.900235
442 1 0.152419 0.240549 0.99577
443 2 0.168677 0.210404 0.989957
470 2 0.228642 0.0249131 0.958337
416 2 0.163196 0.133839 0.953144
415 1 0.184023 0.141342 0.979917
417 2 0.204009 0.113163 0.983568
649 1 0.247658 0.0855186 0.868212
4246 1 0.172598 0.194049 0.676755
3862 5 0.197961 0.063783 0.673754
4247 2 0.166925 0.174648 0.648501
3874 4 0.240841 0.177259 0.804434
3865 5 0.221403 0.0685024 0.755649
3864 3 0.248514 0.0839372 0.728232
4698 2 0.157526 0.0711423 0.806233
3872 5 0.234983 0.220416 0.744692
4263 2 0.143078 0.102217 0.587959
4288 1 0.213677 0.297216 0.632637
4289 2 0.229021 0.317552 0.656255
4290 2 0.237024 0.272341 0.626077
4528 1 0.138409 0.0127162 0.790142
4261 1 0.159046 0.133063 0.588592
4248 2 0.190385 0.173263 0.698165
3859 5 0.24235 0.0505214 0.587926
3878 3 0.236 0.212568 0.88006
3863 5 0.244347 0.0165119 0.688493
3867 4 0.235182 0.125213 0.728388
4262 2 0.175279 0.135098 0.557946
4697 2 0.181307 0.120161 0.799132
3877 5 0.176211 0.187969 0.83262
3861 3 0.238425 0.0565085 0.680379
3879 5 0.208219 0.224005 0.908475
3875 3 0.214808 0.202627 0.828278
4260 2 0.142062 0.238617 0.528873
4430 2 0.140433 0.253546 0.619705
4696 1 0.153909 0.104812 0.813984
3858 5 0.235575 0.109758 0.618719
3876 5 0.206803 0.241763 0.815732
3882 7 0.245282 0.150603 0.876174
6179 2 0.12673 0.0155054 0.901169
6178 1 0.161371 0.0165256 0.898761
6180 2 0.167709 0.0405262 0.874458
651 2 0.278386 0.0859187 0.852012
469 1 0.255484 0.0452002 0.966984
255 2 0.31874 0.248719 0.606808
650 2 0.254281 0.0710508 0.899093
762 2 0.287335 0.219965 0.530994
254 2 0.292657 0.200697 0.612494
253 1 0.287951 0.23342 0.601824
471 2 0.274516 0.0257352 0.988565
3866 5 0.285355 0.0698419 0.741989
3854 3 0.306236 0.0996419 0.591991
3860 4 0.269789 0.0660191 0.653233
3857 3 0.260999 0.0772408 0.613668
3869 5 0.262173 0.169779 0.693595
3853 4 0.321246 0.12829 0.619772
3868 3 0.266462 0.152593 0.731089
4755 2 0.325947 0.00234548 0.917764
3838 5 0.334448 0.302794 0.795602
3870 5 0.306743 0.143075 0.734873
4473 2 0.262598 0.325349 0.541533
3836 3 0.336171 0.310598 0.755067
3856 5 0.331062 0.0673765 0.583386
4508 2 0.33464 0.32474 0.574142
4507 1 0.350884 0.31941 0.604383
4509 2 0.327668 0.328702 0.628497
3881 6 0.254146 0.179028 0.895571
4751 2 0.320102 0.27453 0.937698
4505 2 0.34671 0.185037 0.970354
3871 3 0.252966 0.19186 0.768693
3851 5 0.36128 0.166183 0.578713
4750 1 0.324405 0.307399 0.927308
4577 2 0.273281 0.202805 0.980727
3873 5 0.287553 0.212052 0.779682
3855 5 0.296873 0.114972 0.554508
4576 1 0.300206 0.214734 0.999154
3839 4 0.340619 0.276541 0.729136
3835 5 0.254667 0.315354 0.736707
4752 2 0.298019 0.324666 0.941884
4506 2 0.358909 0.167839 0.919617
3850 3 0.361388 0.13989 0.610942
4504 1 0.372289 0.170967 0.951524
3846 4 0.372262 0.205682 0.661121
3880 5 0.264945 0.24223 0.877832
6428 2 0.347947 0.0884809 0.790683
6427 1 0.337663 0.0993133 0.822048
6429 2 0.355327 0.0793948 0.844366
5070 2 0.324592 0.028091 0.648374
5054 2 0.319283 0.202576 0.85563
5053 1 0.351963 0.190992 0.853462
5068 1 0.354974 0.0206576 0.663492
5055 2 0.350067 0.163477 0.83234
707 2 0.400226 0.097413 0.934701
706 1 0.3883 0.065951 0.926055
898 1 0.459359 0.181026 0.99888
900 2 0.478537 0.204422 0.981801
708 2 0.407922 0.0438717 0.94434
899 2 0.431306 0.176501 0.978896
3852 5 0.38797 0.110459 0.597343
4713 2 0.434532 0.0527061 0.765122
3840 3 0.379035 0.25801 0.729001
4748 2 0.449676 0.225034 0.556831
3845 5 0.436107 0.219439 0.695079
3849 5 0.376896 0.14483 0.689749
4711 1 0.403539 0.0379416 0.759808
4747 1 0.447573 0.254662 0.574848
4759 1 0.486166 0.259706 0.941098
4749 2 0.413539 0.259302 0.580039
3843 3 0.398671 0.231908 0.682174
4712 2 0.393145 0.0503332 0.729063
3848 5 0.426661 0.161566 0.646112
3841 5 0.411762 0.282564 0.737424
3844 5 0.408617 0.261617 0.655185
4760 2 0.479256 0.293689 0.943155
3847 3 0.385986 0.165138 0.654608
4526 2 0.447919 0.0911929 0.825569
4525 1 0.47688 0.0722283 0.822667
3842 5 0.378203 0.231346 0.760571
2815 1 0.443324 0.00474952 0.591346
1141 1 0.455944 0.0729658 0.504751
1143 2 0.453478 0.0686538 0.539134
1142 2 0.460161 0.107191 0.500546
5222 2 0.482377 0.154653 0.927453
5158 1 0.458504 0.227732 0.838861
5159 2 0.47985 0.222502 0.865764
5160 2 0.427086 0.231327 0.853241
5042 2 0.496996 0.221722 0.775333
5069 2 0.378837 0.029076 0.63969
6879 2 0.481473 0.145431 0.741085
6877 1 0.489978 0.116163 0.724416
4283 2 0.0805104 0.34663 0.757566
4284 2 0.0658408 0.391977 0.730231
4498 1 0.090309 0.554848 0.603993
4499 2 0.0721677 0.582957 0.613352
3818 5 0.116921 0.435995 0.671553
4282 1 0.0532954 0.361925 0.742327
4500 2 0.0743247 0.528454 0.619952
4016 2 0.00144525 0.626819 0.693403
2131 1 0.124904 0.499608 0.525103
2132 2 0.116511 0.516717 0.554149
2133 2 0.0954156 0.498585 0.506767
6026 2 0.123773 0.61792 0.88095
6442 1 0.0750002 0.523674 0.714257
6027 2 0.0789977 0.620344 0.912701
6443 2 0.0966735 0.520246 0.74119
5934 2 0.0495371 0.643787 0.769122
6025 1 0.11238 0.629884 0.91151
5932 1 0.0665407 0.650601 0.798639
5933 2 0.0986552 0.638532 0.793176
6444 2 0.0695626 0.557893 0.711754
6175 1 0.00927591 0.641177 0.910084
6437 2 0.115026 0.491458 0.804569
1895 2 0.00408098 0.537293 0.871231
1896 2 0.0280681 0.563579 0.913094
1761 2 0.069062 0.370636 0.535787
1759 1 0.1001 0.357026 0.54342
1760 2 0.105782 0.366262 0.576424
1894 1 0.0223989 0.531809 0.900235
5630 2 0.0438117 0.373083 0.599397
5631 2 0.0310278 0.348114 0.646641
5662 1 0.0358147 0.379557 0.933662
5664 2 0.023081 0.402123 0.910522
5724 2 0.0258703 0.442531 0.649281
5722 1 0.0138001 0.474957 0.6524
5723 2 0.0305173 0.487858 0.679984
5663 2 0.014207 0.381759 0.960774
5629 1 0.0289618 0.378699 0.630297
5718 2 0.045425 0.457713 0.831207
5716 1 0.0738261 0.446582 0.84783
5717 2 0.0695786 0.412189 0.85026
5620 1 0.114538 0.343493 0.830106
7567 1 0.0234104 0.631575 0.605015
7569 2 0.0320108 0.637269 0.571842
7568 2 0.0463104 0.650252 0.623279
7389 2 0.00255105 0.595616 0.821748
105 2 0.165221 0.431935 0.504268
3820 6 0.141909 0.395821 0.624651
3823 5 0.197714 0.464686 0.664937
3920 2 0.164312 0.377578 0.996314
4271 2 0.12673 0.515505 0.901169
3822 3 0.196046 0.424394 0.6744
3825 4 0.226142 0.399065 0.656712
3817 3 0.143232 0.404571 0.664446
3819 5 0.135403 0.371711 0.688702
3824 5 0.205008 0.418728 0.714578
4270 1 0.161371 0.516526 0.898761
4272 2 0.167709 0.540526 0.874458
4296 2 0.178926 0.442357 0.88605
3919 1 0.184162 0.4057 0.991629
4295 2 0.18729 0.395461 0.913429
3821 7 0.175325 0.386341 0.618322
4294 1 0.177896 0.40783 0.882355
2378 2 0.228642 0.524913 0.958337
2324 2 0.163196 0.633839 0.953144
2323 1 0.184023 0.641342 0.979917
2325 2 0.204009 0.613163 0.983568
2557 1 0.247658 0.585519 0.868212
5770 5 0.197961 0.563783 0.673754
5773 5 0.221403 0.568502 0.755649
5772 3 0.248514 0.583937 0.728232
6606 2 0.157526 0.571142 0.806233
6171 2 0.143078 0.602217 0.587959
6115 1 0.248609 0.477615 0.816094
6436 1 0.138409 0.512716 0.790142
6169 1 0.159046 0.633063 0.588592
5767 5 0.24235 0.550521 0.587926
5771 5 0.244347 0.516512 0.688493
5775 4 0.235182 0.625213 0.728388
6170 2 0.175279 0.635098 0.557946
6605 2 0.181307 0.620161 0.799132
5769 3 0.238425 0.556508 0.680379
6604 1 0.153909 0.604812 0.813984
5766 5 0.235575 0.609758 0.618719
6438 2 0.16898 0.497286 0.795982
5790 7 0.245282 0.650603 0.876174
5621 2 0.141196 0.365508 0.833505
3827 5 0.276004 0.454124 0.647981
4520 2 0.347947 0.588481 0.790683
3837 5 0.36385 0.342221 0.751447
4471 1 0.277561 0.355739 0.533826
3828 5 0.278234 0.398615 0.615277
3829 3 0.303304 0.38973 0.691099
3832 4 0.29571 0.349648 0.69875
3830 5 0.339472 0.394787 0.671596
3834 5 0.280476 0.368611 0.768187
4519 1 0.337663 0.599313 0.822048
3826 3 0.266619 0.413973 0.651879
3833 3 0.288439 0.33884 0.740237
4472 2 0.252776 0.373745 0.517445
3831 5 0.308272 0.417391 0.721531
4521 2 0.355327 0.579395 0.844366
2795 2 0.344616 0.473334 0.534945
2559 2 0.278386 0.585919 0.852012
2377 1 0.255484 0.5452 0.966984
2558 2 0.254281 0.571051 0.899093
2794 1 0.313559 0.488097 0.539877
2796 2 0.290893 0.461957 0.536744
2379 2 0.274516 0.525735 0.988565
5774 5 0.285355 0.569842 0.741989
5762 3 0.306236 0.599642 0.591991
5768 4 0.269789 0.566019 0.653233
5765 3 0.260999 0.577241 0.613668
5761 4 0.321246 0.62829 0.619772
5776 3 0.266462 0.652593 0.731089
6663 2 0.325947 0.502345 0.917764
5778 5 0.306743 0.643075 0.734873
5764 5 0.331062 0.567376 0.583386
6116 2 0.261381 0.498581 0.840674
5759 5 0.36128 0.666183 0.578713
6661 1 0.316922 0.485894 0.888528
5763 5 0.296873 0.614972 0.554508
6662 2 0.337432 0.45787 0.887617
5758 3 0.361388 0.63989 0.610942
6117 2 0.266879 0.448247 0.819341
6978 2 0.324592 0.528091 0.648374
6976 1 0.354974 0.520658 0.663492
6963 2 0.350067 0.663477 0.83234
908 2 0.426985 0.474576 0.58592
907 1 0.443324 0.50475 0.591346
909 2 0.47267 0.495942 0.607719
4740 2 0.393216 0.350235 0.916531
4239 2 0.402732 0.449557 0.817595
4680 2 0.444231 0.384651 0.608885
4493 2 0.393178 0.406512 0.723957
4494 2 0.426775 0.444841 0.703438
4238 2 0.397384 0.397434 0.80106
4739 2 0.423216 0.371158 0.875532
4679 2 0.392518 0.380818 0.590722
4237 1 0.380809 0.422618 0.818318
4569 2 0.477427 0.489347 0.7833
4568 2 0.475084 0.435413 0.79352
4738 1 0.420321 0.371005 0.91015
4492 1 0.426753 0.413488 0.7184
4678 1 0.420664 0.401137 0.589401
4567 1 0.497489 0.461369 0.78794
2615 2 0.400226 0.597413 0.934701
2614 1 0.3883 0.565951 0.926055
2616 2 0.407922 0.543872 0.94434
5760 5 0.38797 0.610459 0.597343
6621 2 0.434532 0.552706 0.765122
5757 5 0.376896 0.64483 0.689749
6619 1 0.403539 0.537942 0.759808
6372 2 0.473492 0.395318 0.548574
6370 1 0.490548 0.379462 0.522796
6620 2 0.393145 0.550333 0.729063
5756 5 0.426661 0.661566 0.646112
5755 3 0.385986 0.665138 0.654608
6434 2 0.447919 0.591193 0.825569
6433 1 0.47688 0.572228 0.822667
6371 2 0.472386 0.350443 0.516892
4971 2 0.481473 0.645431 0.741085
5036 2 0.496266 0.362211 0.79382
5035 1 0.462583 0.36896 0.798993
4969 1 0.489978 0.616163 0.724416
5037 2 0.452254 0.384641 0.769765
3049 1 0.455944 0.572966 0.504751
3051 2 0.453478 0.568654 0.539134
3064 1 0.411479 0.463244 0.503618
3050 2 0.460161 0.607191 0.500546
6882 2 0.422318 0.436742 0.983946
7130 2 0.482377 0.654653 0.927453
6881 2 0.435659 0.4878 0.99924
6977 2 0.378837 0.529076 0.63969
223 1 0.124904 0.999608 0.525103
225 2 0.0954156 0.998585 0.506767
4529 2 0.115026 0.991458 0.804569
2570 2 0.046483 0.699288 0.694628
2571 2 0.0981139 0.689749 0.67844
2569 1 0.0657887 0.677274 0.675934
5995 1 0.0106761 0.727703 0.743966
6191 2 0.0805104 0.84663 0.757566
6192 2 0.0658408 0.891977 0.730231
5857 1 0.0343566 0.782611 0.64628
6158 2 0.102813 0.829104 0.935253
6157 1 0.118624 0.799961 0.924882
5858 2 0.0618267 0.767243 0.631582
5997 2 0.0167958 0.761896 0.743509
5726 5 0.116921 0.935995 0.671553
6339 2 0.118607 0.781819 0.577955
6190 1 0.0532954 0.861925 0.742327
5859 2 0.00701762 0.770024 0.628931
6337 1 0.11874 0.75039 0.592755
6177 2 0.0280583 0.668739 0.900367
6159 2 0.119048 0.779754 0.953137
3782 2 0.0789731 0.705712 0.866364
3669 2 0.069062 0.870636 0.535787
3667 1 0.1001 0.857026 0.54342
3668 2 0.105782 0.866262 0.576424
3783 2 0.0727813 0.752044 0.89524
3781 1 0.0554922 0.72396 0.884322