LAMMPS data file via write_data, version 15 Sep 2022, timestep = 46000

2040 atoms
7 atom types
1528 bonds
6 bond types
1448 angles
9 angle types
592 dihedrals
14 dihedral types

-6.7905363746692355 20.56739004804103 xlo xhi
-6.7905363746692355 20.56739004804103 ylo yhi
-6.7905363746692355 20.56739004804103 zlo zhi

Masses

1 15.9994
2 1.008
3 12.011
4 15.9994
5 1.008
6 15.9994
7 1.008

Pair Coeffs # lj/cut/tip4p/long

1 0.185199 3.1589
2 0 0
3 0.056 3.58141
4 0.1 2.93997
5 0.035 2.38761
6 0.192 3.14487
7 0.046 0.40001

Bond Coeffs # harmonic

1 0 0.9572
2 222.35 1.53
3 308.79 1.1111
4 359.76 1.1415
5 427.715 1.142
6 544.635 0.96

Angle Coeffs # charmm

1 0 104.52 0 0
2 50 109 0 0
3 26.5 110.1 22.53 2.179
4 45 111.5 0 0
5 13.0258 109.4 0 0
6 35.5 109 5.4 1.802
7 55 108.89 0 0
8 75.7 110.1 0 0
9 95 109.7 0 0

Dihedral Coeffs # charmm

1 0.57 1 0 0
2 0.29 2 0 0
3 0.43 3 0 0
4 0.59 1 180 0
5 1.16 2 0 0
6 0.12 1 0 0
7 0.42 2 0 0
8 0.29 3 0 0
9 2.87 1 180 0
10 0.03 2 0 0
11 0.23 3 0 0
12 1.36 1 180 0
13 0.16 2 0 0
14 1.01 3 0 0

Atoms # full

302 80 2 0.527 -4.753225930717107 -2.3888825387423873 -1.463626203502904 0 0 0
62 1 3 0.05 -0.3426515983754088 -6.51667849911354 -2.670531205897576 0 0 0
6902 2133 2 0.527 -3.1255355576551276 13.461957240523242 -5.5465811510701215 1 0 1
63 1 5 0.09 0.0831948070396793 20.52221008844566 -1.610499779231092 0 -1 0
66 1 7 0.42 0.5640576227298446 -5.504598992200118 -3.657185102109903 0 0 0
65 1 6 -0.65 -0.06680068018713392 -5.414028617257872 -2.9149538161260633 0 0 0
30 1 4 -0.34 4.744840980700703 -1.8137558341831266 -3.547643449440582 0 0 0
896 278 2 0.527 5.287741201924243 -2.337426294410994 5.527251281937124 0 0 0
2611 808 1 -1.054 -4.726750512236292 -3.729129887121606 2.695364935345939 0 1 0
33 1 5 0.09 5.376234855804546 -3.362376569008098 -2.5299062575618407 0 0 0
27 1 3 -0.01 3.9374548771911133 -1.5518327038808666 -2.7485034133685353 0 0 0
2613 808 2 0.527 -4.136883773269085 -2.9821813369809527 2.7970802438104645 0 1 0
303 80 2 0.527 -5.462927359603333 -3.71696177573082 -1.619822016605248 0 0 0
1804 560 1 -1.054 -2.173033977452895 -3.5162555067033607 -2.7993209445103786 1 0 0
301 80 1 -1.054 -5.175483200958077 -2.9495420333744287 -2.114456898480877 0 0 0
656 198 2 0.527 1.7045196845671668 -3.476684513228373 -4.572650583250793 0 0 0
1806 560 2 0.527 -1.7476589388875396 -4.368082105873524 -2.897649755293964 1 0 0
2301 704 2 0.527 3.713372218957371 -4.033116785825997 0.39239588067374953 0 0 0
7326 2274 2 0.527 -5.491917425620596 -1.1277173078487799 -5.162569408744901 1 0 0
203 47 2 0.527 -3.7381301737970394 -4.673020110553766 1.0567624612760467 0 0 0
1252 376 1 -1.054 -0.25758819945234723 18.92485462936773 2.0619258414742028 0 -1 0
433 124 1 -1.054 -3.640082475947064 0.7630967636990826 -1.1045822987610645 0 0 0
2362 725 1 -1.054 -0.022865056664842953 -3.659187478912467 4.122072254719713 0 1 0
204 47 2 0.527 -3.0547910871361963 -6.023297465248454 1.0159235691009858 0 0 0
31 1 3 -0.01 5.625471420934366 -2.4425379767117175 -3.1455905335955667 0 0 0
4260 1315 2 0.527 -3.5672312323101445 -0.941037514848496 3.3648136450197796 0 0 0
4258 1315 1 -1.054 -3.1166021049680563 -1.4711630927804036 2.707454433111945 0 0 0
4259 1315 2 0.527 -2.1861117946012243 -1.3319821423900722 2.8836285249116944 0 0 0
4747 1478 1 -1.054 -4.584468040945115 -0.15236661052622402 4.583512186489466 0 0 0
202 47 1 -1.054 -3.5562337385702083 -5.412077321915286 0.4763064648612154 0 0 0
714 217 2 0.527 -4.719360077301379 20.19984781410622 -2.112548628930834 0 -1 0
712 217 1 -1.054 -5.082319528793359 -6.583804741117741 -1.4382409699663912 0 0 0
1814 563 2 0.527 -0.08442805196793124 -2.6346199117164133 -6.001578345351032 1 0 0
655 198 1 -1.054 1.2643814098572896 -2.671052864945829 -4.843680537400895 0 0 0
657 198 2 0.527 1.7352701468236713 -1.974665580174273 -4.385936638556696 0 0 0
713 217 2 0.527 -4.318648489165488 -6.1562949013790496 -1.0506035067292707 0 0 0
2300 704 2 0.527 2.2557975779456516 -3.9397767435468274 -0.0058900930612511004 0 0 0
2363 725 2 0.527 0.9144117444281665 -3.716306643720291 3.936409992630063 0 1 0
7324 2274 1 -1.054 -4.740026792576883 -0.8721562972097319 -5.696957127802506 1 0 0
7325 2274 2 0.527 -5.1182840635807665 -0.37063446236888 -6.41918853259214 1 0 0
5191 1605 1 -1.054 -2.406836305339361 6.985980110029242 6.616959294116473 1 0 0
1664 513 2 0.527 -4.944824641497997 20.226282978625534 1.6196613124435775 1 -1 0
64 1 5 0.09 -1.4745070587031028 -6.569206449748251 -2.6041356924378 0 0 0
58 1 4 -0.34 0.714242199922384 -6.766055530902345 -4.677418253186152 0 0 0
6375 1978 2 0.527 -1.2003550595803594 -2.056301721367527 -2.5306131367333506 0 0 0
1254 376 2 0.527 -0.994123288909063 18.768310825748664 2.652883564067638 0 -1 0
4749 1478 2 0.527 -4.303673284237491 -0.6182831161908338 5.37110156252381 0 0 0
59 1 3 -0.01 0.31248679627935694 19.8907411750085 -3.7328608264646386 0 -1 0
689 209 2 0.527 0.9340190898477365 -3.7333483304600437 -1.7283578773823614 0 0 0
688 209 1 -1.054 1.2180777741186244 -2.983444395595943 -1.2056956651052833 0 0 0
690 209 2 0.527 0.7095661073283486 -2.2473392286934377 -1.545969120999775 0 0 0
4071 1252 2 0.527 4.392195324623877 -6.305489106735749 2.6744444261048663 0 0 1
1253 376 2 0.527 -0.00011120743025117008 19.83056110920753 2.2340371422018332 0 -1 0
4069 1252 1 -1.054 4.787486843628892 -5.5975490771541025 3.183155173547531 0 0 1
2299 704 1 -1.054 2.8450033538119506 -4.3690817929096175 0.6143958713389743 0 0 0
2661 824 2 0.527 5.439003230592844 1.550424688261531 3.246533773021932 0 1 0
4070 1252 2 0.527 4.051060897133814 -5.036358720557281 3.4259783373607906 0 0 1
1156 344 1 -1.054 2.84400694728874 -3.6096925768292225 3.267946403704155 0 0 0
2996 915 2 0.527 3.583403979652015 19.7599143581717 -5.769702152575671 0 0 0
6944 2147 2 0.527 6.155614932417045 -4.343375473652065 0.5876386487106942 0 1 0
934 291 1 -1.054 -3.0606746535854 -6.687375123768664 3.8954832206978587 0 0 0
5159 1594 2 0.527 3.791591719451066 -4.108846728594266 -4.523519592201765 0 0 1
6943 2147 1 -1.054 5.616701453648698 -3.7685675959898894 1.1311357784974518 0 1 0
5071 1565 1 -1.054 2.6560015251682483 0.3719070758218459 0.6854197364248762 0 0 1
1805 560 2 0.527 -3.10211624434438 -3.7223875127928907 -2.6966727922509213 1 0 0
2364 725 2 0.527 -0.2472569450850921 -4.514074533596645 4.489546655098017 0 1 0
5217 1613 2 0.527 -0.18268638373789603 -1.798096656443274 3.477820696581089 0 0 0
6373 1978 1 -1.054 -0.8287074021556249 -1.2830081062982455 -2.106212474259718 0 0 0
6374 1978 2 0.527 -0.7749465022209385 -0.6292240724925771 -2.803275678399377 0 0 0
684 207 2 0.527 -2.4985353656608904 -2.4942976270615462 -0.1255429633961338 0 0 0
7293 2263 2 0.527 1.7719584571274911 -6.463365451699393 3.5480033253614884 0 1 0
683 207 2 0.527 -3.2841235436910057 -1.5497656541590326 0.7590916880140721 0 0 0
11 1 5 0.09 -2.3312272086085715 0.7415870679018735 -3.843945358778701 0 0 0
4467 1384 2 0.527 -0.4974081877861751 -0.6243384504769383 -0.4052568589396621 0 0 0
12 1 5 0.09 -2.810141703261808 2.3823403318838263 -3.216172135659618 0 0 0
10 1 3 -0.01 -1.9903051667124156 1.8580953273111476 -3.8702317797116734 0 0 0
4465 1384 1 -1.054 -0.18484381681731143 -0.30376853600796583 0.440768802511629 0 0 0
4466 1384 2 0.527 -0.44367181993085847 0.617591262294976 0.45879800668276527 0 0 0
5072 1565 2 0.527 1.7983006448456162 -0.04228257049169404 0.5904617881158662 0 0 1
936 291 2 0.527 -3.710444815719812 -6.325870750649103 4.498255331338939 0 0 0
37 1 4 -0.34 6.188688409841321 -3.1061040194557976 -5.322898574570491 0 0 0
29 1 5 0.09 3.1187283414556006 -2.3809683891923763 -2.7306093861822296 0 0 0
7292 2263 2 0.527 0.7160643413540493 20.16062548450636 4.346936442062027 0 0 0
1158 344 2 0.527 3.3490508695235395 -2.817126598087512 3.0863125298619547 0 0 0
4287 1324 2 0.527 -1.547562559945617 18.20602019129666 -0.028140995294472226 0 -1 0
5160 1594 2 0.527 3.208275099275699 -5.443049896308725 -4.937659140749593 0 0 1
7291 2263 1 -1.054 1.0814118430493993 -6.325483216708411 4.196351027895615 0 1 0
8 1 5 0.09 -3.315750601310261 1.3548469156835132 -5.67918522238632 0 0 0
2767 860 1 -1.054 4.220317280713285 -1.4925644809501568 1.9732750906561005 0 1 0
32 1 5 0.09 6.256351512795385 -1.793456597871903 -2.411121096357369 0 0 0
5829 1796 2 0.527 -6.759427323949922 12.240372115532294 -4.747537336363044 0 0 1
28 1 5 0.09 4.380564046152147 -1.4725563623863698 -1.656008507310771 0 0 0
6901 2133 1 -1.054 -3.3291861718287 13.881927605329034 -6.38226791812901 1 0 1
474 137 2 0.527 -3.309446372791967 -3.575015649094757 -5.602112456957315 0 0 0
60 1 5 0.09 -0.4451559839233177 19.047413106043578 -3.8799493745713365 0 -1 0
55 1 3 -0.01 0.8636938555080276 20.025438398998702 -5.7256850012902865 0 -1 0
1892 589 2 0.527 -6.046134263346769 -5.140434580248107 5.882807722141862 1 0 0
5158 1594 1 -1.054 3.389606709002294 -4.9019806784763595 -4.169164573826661 0 0 1
895 278 1 -1.054 5.11729637173929 -1.5284690372319343 5.044801665446789 0 0 0
5192 1605 2 0.527 -1.8490559402737778 6.43133498526271 6.071550501761585 1 0 0
6026 1862 2 0.527 -4.984585975945226 10.687318035197594 -6.46117157532257 0 0 1
682 207 1 -1.054 -3.2223521846516694 -1.8681537302907145 -0.1414826785651595 0 0 0
1157 344 2 0.527 2.738856027760411 -4.028315791830471 2.4135935401981605 0 0 0
21 1 5 0.09 1.5664600122517474 0.013157349018211306 -5.2318330864798135 0 0 0
5215 1613 1 -1.054 -0.1687499852074863 -0.868708880778855 3.2492051975863543 0 0 0
921 286 2 0.527 5.83394902378385 19.316317433217904 -6.350595786424565 0 -1 0
5216 1613 2 0.527 0.03458360280100514 -0.8546477063511739 2.313962585698256 0 0 0
2612 808 2 0.527 -5.110520273011131 -3.8518369511023938 3.5636302354166602 0 1 0
5531 1718 2 0.527 -0.4045100302944622 2.0555509471211586 4.688832307418618 0 0 1
3852 1189 5 0.09 0.7108385848097605 -1.6349234018999494 5.660489207410437 0 0 0
1663 513 1 -1.054 -5.349383084173039 20.040360095252126 2.467001864372685 1 -1 0
3851 1189 5 0.09 -0.6170068059599663 -0.7958436433326277 6.5494389291842126 0 0 0
4748 1478 2 0.527 -5.406636374838339 -0.5748756970979017 4.335024317474655 0 0 0
3810 1186 2 0.527 -5.998267369093475 -5.824634996340102 -4.397016056749926 1 1 0
5041 1555 1 -1.054 5.107299132177449 -0.5630438454693625 -6.273440626298929 0 0 1
2769 860 2 0.527 4.830772576694855 -2.0097328195823527 1.4478208278296325 0 1 0
1946 595 3 -0.01 -0.7193260798108723 9.123449849587278 -6.660978002301445 0 0 0
435 124 2 0.527 -3.155737803271913 -0.06092122826023427 -1.1558230217681915 0 0 0
5073 1565 2 0.527 3.226060511564693 -0.32730615756492565 1.0053486146745252 0 0 1
5532 1718 2 0.527 0.05117730852217939 0.881692530700187 3.848431617778541 0 0 1
5530 1718 1 -1.054 0.17978923167026917 1.822729355093296 3.9672996686153166 0 0 1
15 1 5 0.09 -0.8162138885400099 1.5079543286135557 -2.041201181111025 0 0 0
2660 824 2 0.527 6.047368675010702 2.3603469874168876 2.121462622384133 0 1 0
1672 516 1 -1.054 6.647702269027256 -5.3228628707676915 -0.6936942900427825 0 0 0
16 1 4 -0.34 0.1743572971105518 1.170893815251019 -3.6407547290652182 0 0 0
13 1 3 -0.01 -0.6585987098978032 1.8988315831370048 -3.142035514657644 0 0 0
3850 1189 3 -0.01 0.41346366924413847 -1.284416300342473 6.70603812781801 0 0 0
23 1 4 -0.34 2.506893865796396 -0.4196675552779272 -3.932236298799079 0 0 0
24 1 3 -0.01 3.043654474618707 -0.2500754706059105 -2.954129511278882 0 0 0
1220 365 2 0.527 -1.0092655599891724 2.164065833309314 2.398154563534634 0 0 0
25 1 5 0.09 3.8259846940895006 0.5969614128656362 -2.966217751805618 0 0 0
2847 886 2 0.527 -4.917577758733812 2.001556169507639 -0.20735948096515777 0 0 0
5827 1796 1 -1.054 -6.711199065986389 11.364376721360435 -4.36474868622899 0 0 1
1955 595 5 0.09 0.1265346229997384 5.619602679119625 -6.2719105484723325 0 0 0
2846 886 2 0.527 -6.2368774109661445 2.4430013982100363 0.38966836603728794 0 0 0
2845 886 1 -1.054 -5.313422068599173 2.6877172914674894 0.3299589085714585 0 0 0
105 14 2 0.527 -1.7566173711646105 -6.139747236571202 5.400703229511407 0 0 0
1897 591 1 -1.054 0.07774333796135036 18.69268573170558 5.355597739522409 1 -1 0
26 1 5 0.09 2.3655331986089507 -0.053550947399963356 -2.0610238182897227 0 0 0
1221 365 2 0.527 -1.5755723082732933 3.1312403900889745 1.3804424208376922 0 0 0
19 1 5 0.09 1.8705853606184686 2.2036252711834763 -3.097157426872487 0 0 0
1219 365 1 -1.054 -1.1525134221476003 2.2761585769559947 1.4584012917927414 0 0 0
17 1 3 -0.01 1.2856882751522 1.6588195436677964 -3.904954742577121 0 0 0
20 1 3 -0.01 2.230561613033771 0.5873412123399246 -4.507596905934579 0 0 0
9 1 4 -0.34 -1.887619565747766 2.588547880441654 -4.812057186041049 0 0 0
6008 1856 2 0.527 6.730171850233914 17.23500435270283 -4.812709072480983 -1 0 1
6 1 3 -0.01 -2.6259513448121723 2.2543817726372506 -5.644172327608952 0 0 0
2659 824 1 -1.054 6.263394580789699 1.705752293010299 2.785585707780182 0 1 0
6611 2057 2 0.527 1.9526500019963304 2.7266362719856687 0.6157554152605638 0 0 1
6112 1891 1 -1.054 2.123986549771196 16.30570108939444 5.414805711890242 0 0 0
6431 1997 2 0.527 5.515050905237212 4.161295183742379 0.02554749999381567 0 0 0
924 287 2 0.527 3.461222503407969 1.7564375085198414 2.285726455204429 0 0 0
1891 589 1 -1.054 -5.176783365649543 -5.0077244865664055 5.5048683450180285 1 0 0
2584 799 1 -1.054 2.517533841875224 20.473099830355622 1.73493574617593 0 0 0
2585 799 2 0.527 2.4290375990198427 -6.0613248788288825 1.2551083609524394 0 1 0
1893 589 2 0.527 -4.639212944002486 -4.709190498751017 6.238432527523985 1 0 0
44 1 4 -0.34 4.848896025206795 -4.727517031796459 -6.569142778533538 0 0 0
5025 1549 2 0.527 5.5362895702080674 1.3243102748583535 -5.613836647319654 0 0 1
5042 1555 2 0.527 5.087245322597232 -1.2865492026781782 -5.64705498666811 0 0 1
5715 1779 2 0.527 -4.746513386235927 5.722381806170716 -6.693040844016297 1 0 1
1163 346 2 0.527 2.080937865085179 -4.873980865447217 6.159197057584549 0 0 0
6945 2147 2 0.527 5.476018760065868 -4.263818038710658 1.938078357976405 0 1 0
434 124 2 0.527 -4.429509512235704 0.610145437152597 -1.623843346301717 0 0 0
897 278 2 0.527 5.913431867311573 -1.381286081845995 4.534187852071176 0 0 0
5043 1555 2 0.527 4.209108616796877 -0.2324551307155378 -6.287078281653948 0 0 1
6412 1991 1 -1.054 -3.9410855638276656 -5.323798530302991 -5.085614478325474 0 1 1
1945 595 4 -0.34 -0.3920387689476934 10.067828311871052 -6.142821491158267 0 0 0
34 1 3 -0.01 6.625942391587577 -2.866846302974721 -4.272010731034477 0 0 0
2768 860 2 0.527 4.774339194991693 -1.0421436951663905 2.61077154432504 0 1 0
2382 731 2 0.527 -0.31549977815992847 16.27517106512078 -5.560492285771514 0 0 0
2622 811 2 0.527 -3.913305256195814 1.6008199168220791 3.478066890916079 0 0 0
1942 595 3 -0.01 -0.932094237955365 11.100732498371189 -6.523820154692299 0 0 0
2855 889 2 0.527 4.427443762747853 3.1042253701954365 4.816618758580585 0 1 0
2620 811 1 -1.054 -4.06867915271981 2.5212252890875675 3.2660908071783528 0 0 0
1813 563 1 -1.054 -0.6187443690064915 -2.3449042756851295 -6.741032056965885 1 0 0
2621 811 2 0.527 -3.879253183446627 2.587226684372757 2.330151412293336 0 0 0
6175 1912 1 -1.054 -6.549305948942183 10.174236122163338 6.762319691020528 0 0 0
3784 1178 1 -1.054 -6.025675983093391 12.155617901716179 4.787753790863226 1 0 0
6417 1992 2 0.527 6.4557394283942084 16.897524497338033 1.690739518764751 0 0 0
5024 1549 2 0.527 4.845234228725296 2.5831483221398255 -5.134632020630936 0 0 1
5740 1783 4 -0.34 4.1838833916514595 12.406949116226647 6.572521523125969 0 0 0
1610 495 2 0.527 3.8949274399635883 6.00011416361847 1.917777378008351 0 0 0
3786 1178 2 0.527 -6.480550424994626 11.984025274723878 3.963213868162171 1 0 0
5 1 7 0.42 -0.921496101852032 3.0567398930585217 -6.013594818461942 0 0 0
1609 495 1 -1.054 4.704072771783439 6.094610553047689 2.420346019988582 0 0 0
4875 1499 2 0.527 6.78643374019903 8.6086592534267 -2.053018554625063 0 0 1
1643 506 2 0.527 -5.324491034974183 5.5357940244274175 5.899353123507385 1 0 0
948 295 2 0.527 6.79271078167843 8.123554802553981 5.671449359553732 0 0 0
3820 1189 6 -0.65 -1.4364506551972127 2.1646518617408645 6.417703744393842 0 0 0
7339 2279 1 -1.054 4.800224822083782 10.796510277126883 4.5702076728850525 0 0 1
6882 2126 2 0.527 5.01620741675905 6.977249404408072 -4.166375453217689 0 0 1
2854 889 1 -1.054 4.248309808430703 3.792648495064334 5.4570916177070785 0 1 0
5224 1616 1 -1.054 4.540940893024574 5.139523034661865 -1.2587207720356384 0 0 1
3818 1189 5 0.09 -3.0570460487823183 1.802478763587084 5.6152771504859516 0 0 0
3801 1183 2 0.527 -6.3286133573591385 9.667194574510576 -1.7350995436794392 1 0 0
922 287 1 -1.054 3.7039506401694293 1.8980296376703372 3.2007433096836753 0 0 0
3950 1212 2 0.527 -6.44324298043497 5.759330109369859 0.8800034353529087 0 0 0
923 287 2 0.527 2.8821906981798353 1.8093189072631422 3.6835081323632135 0 0 0
6430 1997 1 -1.054 6.0999076898630005 3.9959582093412767 0.7650252035846599 0 0 0
7 1 5 0.09 -3.3033484252340726 3.137842493482358 -5.78489409423733 0 0 0
7340 2279 2 0.527 5.410068298182006 10.32542732019166 5.1380041139353185 0 0 1
2554 789 1 -1.054 2.4235236135750746 5.9109538588012285 0.769172238263514 0 0 0
2556 789 2 0.527 2.102798467862879 5.01856266915823 0.6388101124346885 0 0 0
5226 1616 2 0.527 4.748928101476368 5.723060971613426 -1.9884095947292533 0 0 1
1057 311 1 -1.054 -3.8950651177911837 7.319106045989251 2.3546561709632616 1 0 0
1646 507 2 0.527 -5.030517520030098 3.986658788578179 4.01151394041514 1 0 0
5737 1783 3 -0.01 4.290890662710897 13.566791257011696 6.507984550977307 0 0 0
2210 674 2 0.527 0.9535429501518466 5.956668920295158 6.131806969198443 0 0 0
2569 794 1 -1.054 -1.4223976748260112 4.710667264741254 4.956981262530734 0 0 0
3817 1189 3 0.05 -2.4836706802522928 1.9214892788713502 6.626538727913948 0 0 0
1058 311 2 0.527 -4.615039810676363 6.83448130508757 1.9509282952852445 1 0 0
1059 311 2 0.527 -3.771378588544863 8.080969984105016 1.7885414538085485 1 0 0
6610 2057 1 -1.054 1.446465946697316 3.5125647607756836 0.4100492415313086 0 0 1
7569 2355 2 0.527 -3.3721487106280637 10.007858279621024 1.6459430275213869 1 0 0
2570 794 2 0.527 -0.4837107566171408 4.882556480883824 5.031425807597218 0 0 0
6612 2057 2 0.527 0.5427695513547759 3.2047143541394814 0.3408985460206946 0 0 1
2590 801 1 -1.054 -6.419873918960786 0.869869240907363 -2.2599097342598364 0 1 0
2794 869 1 -1.054 6.349824258403951 10.814539747521346 2.1160829856895447 0 0 0
2796 869 2 0.527 6.311361006581878 9.867974537876696 1.9791305582048313 0 0 0
4232 1306 2 0.527 1.3344157278536795 19.672257490571077 6.567338307710868 0 -1 0
1900 592 1 -1.054 -1.895806413896226 5.368101282832537 2.2426658293323456 1 0 0
480 139 2 0.527 0.1824934062974064 7.557706567547312 2.604260751030214 0 0 0
479 139 2 0.527 -0.5029044332798751 6.456857336357412 1.823089517413015 0 0 0
3949 1212 1 -1.054 -5.715500018214556 5.378141922937225 1.371233175587717 0 0 0
1902 592 2 0.527 -1.825412463853251 5.189972596283313 3.1805014971817993 1 0 0
478 139 1 -1.054 0.20956653564916028 7.093659612776813 1.7675120833214581 0 0 0
2795 869 2 0.527 5.6852297808443755 10.987760968375808 2.7828134507541247 0 0 0
6415 1992 1 -1.054 5.7407610934516295 17.42707755107142 1.3377516493790278 0 0 0
1645 507 1 -1.054 -5.483264112488713 4.746373848183721 4.377676009970244 1 0 0
1957 595 5 0.09 0.3757021818591664 4.529319173109178 -4.11570778177177 0 0 0
1956 595 3 -0.01 0.30472030967738295 5.70017287741465 -4.082920044835852 0 0 0
1953 595 3 -0.01 -0.2498563922545758 6.243011154573589 -5.392522574351118 0 0 0
14 1 5 0.09 -0.36386296535275164 3.0513156627943143 -2.9586091895326585 0 0 0
1958 595 5 0.09 1.275563382594994 6.220417211792078 -3.7869235769260947 0 0 0
1952 595 4 -0.34 -0.02555475005015584 7.4241900973644395 -5.401160623081747 0 0 0
6193 1918 1 -1.054 -5.519919949680191 6.0409020371202455 -5.079829431548611 0 0 0
6194 1918 2 0.527 -5.130696000370911 5.786040887374353 -4.243306033656014 0 0 0
1959 595 4 -0.34 -0.4208685094721716 6.039143334799489 -3.190107631674061 0 0 0
1972 595 5 0.09 -4.386059554662587 3.867536078117526 -2.519620100470717 0 0 0
1973 595 6 -0.65 -3.9912115396144987 5.704611523568362 -2.4826287448709925 0 0 0
1974 595 7 0.42 -3.10819812796445 5.408884376593576 -2.764550851747714 0 0 0
1960 595 3 -0.01 -0.14477141665915827 5.622042226515925 -2.155054645394893 0 0 0
1970 595 3 0.05 -4.2527735812989835 4.837235086454795 -1.8621406338189104 0 0 0
1971 595 5 0.09 -5.217563504907722 5.033456585103307 -1.2460149208752105 0 0 0
1966 595 4 -0.34 -2.014476256961177 4.599289363519491 -1.4845263311964922 0 0 0
1901 592 2 0.527 -2.46704999655699 6.13406510961749 2.186087943393545 1 0 0
2118 643 2 0.527 -2.992196256382443 9.195736221346909 -2.7966179958809905 0 0 0
2117 643 2 0.527 -4.191117470606911 8.444336402129034 -2.2582371388253026 0 0 0
2116 643 1 -1.054 -3.946613519739759 9.236696946896698 -2.736362074508512 0 0 0
3669 1139 2 0.527 -5.983071091589117 -3.4716463737818404 1.3808596172852194 1 1 0
6413 1991 2 0.527 -3.2357937965385153 -5.95892936724903 -4.96154514088916 0 1 1
3951 1212 2 0.527 -5.501743827601636 4.573953385292411 0.8981475542315209 0 0 0
946 295 1 -1.054 6.173753520255593 7.446184075407402 5.943996107416897 0 0 0
2209 674 1 -1.054 0.9733204268019842 6.393487348326838 5.280326233823281 0 0 0
2211 674 2 0.527 1.9005708343367544 6.4165234362224375 5.0439007195434 0 0 0
1967 595 3 -0.01 -3.0501880699969823 4.55348411622291 -0.9081158943840135 0 0 0
1963 595 3 -0.01 -1.2881924885507798 5.449469699187599 -1.2130927625622343 0 0 0
1968 595 5 0.09 -2.952092198769965 3.419681380632822 -0.8746586405578647 0 0 0
1969 595 5 0.09 -3.125452623107201 4.964178958216465 0.1500816335306041 0 0 0
1965 595 5 0.09 -0.8244999677643108 5.215593213814284 -0.23156949174009345 0 0 0
1964 595 5 0.09 -1.8567398355583773 6.434597994093428 -1.2477578573151193 0 0 0
1962 595 5 0.09 0.4620174937504995 4.641833561170429 -2.0089571489771956 0 0 0
4675 1454 1 -1.054 -5.488847949165285 8.811571327357603 -5.20347596570838 1 0 1
18 1 5 0.09 0.9775121078204201 2.3077222215672872 -4.735061818819789 0 0 0
2806 873 1 -1.054 -5.4703963893323255 11.353130218089662 -2.005349783973969 0 0 0
2808 873 2 0.527 -5.415159082502253 11.674970892143142 -1.105578403188332 0 0 0
1961 595 5 0.09 0.5927312443537307 6.392356922963046 -1.789910541114307 0 0 0
6486 2015 2 0.527 -1.1171095598990997 8.081726979511071 -3.7938690329680984 0 0 1
6381 1980 2 0.527 -5.816760421409889 10.704577000337752 1.0952653599236974 0 0 0
7567 2355 1 -1.054 -3.766605705362009 9.715332755753765 0.824326712274237 1 0 0
7328 2275 2 0.527 -2.3606199036086073 9.223227360983058 3.615452402021763 1 0 0
2571 794 2 0.527 -1.5745713540852382 3.9578687258426104 5.528259245184854 0 0 0
7329 2275 2 0.527 -2.316152987786765 10.634544581975808 4.161414133191402 1 0 0
7327 2275 1 -1.054 -2.79675813252822 10.073009508441084 3.5532052573304576 1 0 0
2807 873 2 0.527 -4.745860706478188 10.73246937849762 -2.0831257986238274 0 0 0
1155 343 2 0.527 0.8345183282715487 12.794539809403018 1.157254374699498 0 0 0
1153 343 1 -1.054 0.3594601167807365 12.041276780481587 0.8063478753341284 0 0 0
473 137 2 0.527 -3.7907431195316703 -2.2949667419923454 -6.25149383511038 0 0 0
7568 2355 2 0.527 -3.0222886619786085 9.557957785638445 0.24342555262289256 1 0 0
6432 1997 2 0.527 6.4098958724288195 4.863602492392687 1.0244896603484737 0 0 0
22 1 5 0.09 3.062661088649042 1.0286597842616096 -5.183543449245129 0 0 0
909 282 2 0.527 3.9713425022439353 4.445169478423933 -3.268115263012433 0 0 1
908 282 2 0.527 3.748106949170971 4.570577492527033 -4.760196563495155 0 0 1
4739 1475 2 0.527 3.8011738904719454 5.514363584690546 5.280168080696111 0 0 1
6484 2015 1 -1.054 -1.143334491223798 9.014640307405307 -3.5812521610248433 0 0 1
907 282 1 -1.054 3.702983169984167 3.94385911074548 -4.038110152333132 0 0 1
6485 2015 2 0.527 -0.4748027553786418 9.407557377377229 -4.142413801841908 0 0 1
1665 513 2 0.527 -4.739440159284461 20.403663737354258 3.109030643430266 1 -1 0
4677 1454 2 0.527 -6.2836542748975175 9.3033244773551 -4.996877976898428 1 0 1
2555 789 2 0.527 1.6545551567019192 6.402598998986322 1.0576051215513056 0 0 0
5225 1616 2 0.527 3.801733397424224 5.559396713743116 -0.8188352049289147 0 0 1
3785 1178 2 0.527 -6.1611102237997075 11.362421611703775 5.3061340408667 1 0 0
1930 595 5 0.09 5.326036283230955 12.048538303766476 -5.539009397100302 0 0 0
2180 664 2 0.527 -0.8024335072977697 9.2943714070783 -1.3231202722855793 0 0 0
5023 1549 1 -1.054 5.6590366204871945 2.269831914208144 -5.5293211637775155 0 0 1
7341 2279 2 0.527 4.710349538730503 11.65823500027046 4.977115310804427 0 0 1
1924 595 4 -0.34 3.745827958573706 12.939425631345449 -3.2010319092213395 0 0 0
5749 1783 5 0.09 2.460893799098434 9.175983462821705 6.339017943612294 0 0 0
4676 1454 2 0.527 -4.897449014392263 8.993471759811047 -4.47314688532259 1 0 1
41 1 3 -0.01 5.955632287345633 -5.023720337798896 -6.5725980260044174 0 0 0
3070 940 1 -1.054 -5.832281341000492 8.985070219998903 3.3566888010451734 1 0 0
6881 2126 2 0.527 6.101307812480137 6.12076838421787 -3.5492327072189562 0 0 1
6379 1980 1 -1.054 -6.31410535657453 11.457492860513854 0.7759118766470294 0 0 0
6879 2125 2 0.527 1.0217283424450283 12.198398792485849 -4.91449955611197 0 0 1
3330 1026 2 0.527 0.3600452687178821 7.9260781783221255 4.544386604822021 0 0 0
6880 2126 1 -1.054 5.279827898649895 6.566652450096024 -3.3428857612565883 0 0 1
6195 1918 2 0.527 -5.517549814391096 6.997961678148023 -5.063952042931541 0 0 0
7123 2207 1 -1.054 4.69832203446061 6.977445465266873 -5.970061102124708 0 0 1
4738 1475 1 -1.054 3.9007792538807617 6.422647621529485 4.995001867030824 0 0 1
2856 889 2 0.527 4.026563857481305 3.321440807118206 6.26021860877364 0 1 0
1154 343 2 0.527 0.9118180855739508 11.288971089970234 1.0188513502964822 0 0 0
3328 1026 1 -1.054 -0.09307617897673826 8.664604662825067 4.137593542158324 0 0 0
2179 664 1 -1.054 -1.3530257145710713 9.054341199332349 -0.5778319196743746 0 0 0
4740 1475 2 0.527 4.675082900591095 6.737153425124726 5.46165043066164 0 0 1
3329 1026 2 0.527 0.5734427645144917 9.348471818134824 4.072024502911177 0 0 0
6139 1900 1 -1.054 6.379712370154834 8.060871560942564 1.328221693544318 0 0 0
201 46 2 0.527 -3.3912784400360807 10.136005291845729 5.4118144585777355 0 0 0
1927 595 5 0.09 3.7383581509942765 11.099334164853706 -3.6143603899910546 0 0 0
1611 495 2 0.527 4.413926160601546 6.180101355350947 3.3284909192002914 0 0 0
199 46 1 -1.054 -3.568901964378751 9.96490532509352 6.336690545530411 0 0 0
947 295 2 0.527 6.657621688117484 6.625983459976412 5.847230505391174 0 0 0
6140 1900 2 0.527 5.585620485140799 7.6038246577190005 1.6052544679990532 0 0 0
6337 1966 1 -1.054 -0.929928857892028 15.762137867137758 6.758039860810452 0 0 0
431 123 2 0.527 5.315394087908233 20.371766469536084 -3.3370122405777938 0 -1 0
61 1 5 0.09 1.1814044812867959 19.412517966420914 -3.2867226652047754 0 -1 0
4286 1324 2 0.527 -2.159123097397516 17.96264224098418 -1.391456512649495 0 -1 0
4285 1324 1 -1.054 -1.4211235494475343 18.39182023326685 -0.9585777106152529 0 -1 0
935 291 2 0.527 -3.0121895245279173 19.742163124952043 4.123442618740524 0 -1 0
3724 1158 1 -1.054 -3.532018863352322 18.48436547235238 -3.1894263766100743 1 0 0
2350 721 1 -1.054 -6.75064756969637 19.352028424243592 -6.6597284727955355 0 0 0
2600 804 2 0.527 4.062381055904728 18.648713385920644 -2.36310583703927 0 0 0
3722 1157 2 0.527 -5.003350785917764 17.272491686991444 0.9855867146611992 1 0 0
1943 595 5 0.09 -1.2260749718452137 11.555870632340946 -5.518163215809343 0 0 0
1898 591 2 0.527 0.5146541685862429 18.048471613092417 4.798535804459037 1 -1 0
56 1 5 0.09 1.7070979968035598 19.274503272976474 -5.475370784749153 0 -1 0
6113 1891 2 0.527 2.29527841258294 16.654237191741274 4.539932744797417 0 0 0
38 1 3 -0.01 6.804073545707954 -3.797228717369521 -6.014201235095097 0 0 0
7124 2207 2 0.527 5.641400163101437 6.982074506768001 -6.133777564065883 0 0 1
2715 842 2 0.527 6.579998835642256 -5.56608931577594 3.6974080967958685 0 1 0
3723 1157 2 0.527 -5.329198176724654 18.316645607722776 2.032216584868536 1 0 0
103 14 1 -1.054 -1.79353592632277 -5.731569305441839 6.265716921230103 0 0 0
430 123 1 -1.054 4.987112231010469 20.526548054740864 -2.451295258833781 0 -1 0
5739 1783 5 0.09 3.383867846872892 14.296570148097464 6.330357201587681 0 0 0
57 1 5 0.09 -0.021196864794185366 19.360164976796405 -6.066225019874606 0 -1 0
1844 573 2 0.527 1.257138633763045 18.39863363504515 -0.33206261801900716 1 -1 0
6141 1900 2 0.527 6.219683239958032 8.28600667974565 0.4117470709130995 0 0 0
1401 425 2 0.527 2.8795320069709547 16.51226407043135 -6.262032258629012 0 -1 0
6198 1919 2 0.527 0.610685147107553 13.564959319031614 6.249728482985136 0 0 0
4246 1311 1 -1.054 0.999949650428742 14.988606347277178 1.7528991504838167 0 -1 0
3759 1169 2 0.527 -2.0785858953819503 18.089093910651634 -5.759423678290193 1 0 0
2669 827 2 0.527 -4.072301092720124 13.556322840937773 0.8527985220115042 0 0 0
1674 516 2 0.527 5.893859338279583 -5.8743046062901705 -0.9031071429426696 0 0 0
3071 940 2 0.527 -6.212936508694158 8.311108160435214 3.919803052753558 1 0 0
1934 595 5 0.09 3.2863999081795683 10.488097945624839 -6.28394028340527 0 0 0
2181 664 2 0.527 -0.7331972669082303 8.815965056231594 0.11152313397117997 0 0 0
3721 1157 1 -1.054 -5.344933714240109 17.37272856744047 1.8741219070785036 1 0 0
1949 595 3 -0.01 0.1372165210895071 7.813163037833178 -6.477273670571378 0 0 0
4529 1405 2 0.527 3.843914954205612 17.210016310549804 2.9604122145316136 0 -1 0
432 123 2 0.527 4.308603492546153 -6.1650022557745405 -2.559875984901989 0 0 0
3848 1189 5 0.09 1.480816683235533 0.5658486725853145 6.181720777566335 0 0 0
2586 799 2 0.527 2.172363377831166 19.80923250069784 1.1379781317573459 0 0 0
1925 595 3 -0.01 4.27764385063289 12.054648001587543 -3.757626616144033 0 0 0
2670 827 2 0.527 -5.5288472530278625 13.147562997307356 0.9098634466287061 0 0 0
3725 1158 2 0.527 -3.2333181537204583 18.60858830457073 -4.090296790957218 1 0 0