LAMMPS data file via write_data, version 3 Nov 2022, timestep = 37000

8955 atoms
7 atom types
6138 bonds
6 bond types
3753 angles
9 angle types
592 dihedrals
14 dihedral types

-22.559915703395443 22.559915703395443 xlo xhi
-22.559915703395443 22.559915703395443 ylo yhi
-22.559915703395443 22.559915703395443 zlo zhi

Masses

1 15.9994
2 1.008
3 12.011
4 15.9994
5 1.008
6 15.9994
7 1.008

Pair Coeffs # lj/cut/tip4p/long

1 0.185199 3.1589
2 0 0
3 0.056 3.58141
4 0.1 2.93997
5 0.035 2.38761
6 0.192 3.14487
7 0.046 0.40001

Bond Coeffs # harmonic

1 0 0.9572
2 222.35 1.53
3 308.79 1.1111
4 359.76 1.1415
5 427.715 1.142
6 544.635 0.96

Angle Coeffs # charmm

1 0 104.52 0 0
2 50 109 0 0
3 26.5 110.1 22.53 2.179
4 45 111.5 0 0
5 13.0258 109.4 0 0
6 35.5 109 5.4 1.802
7 55 108.89 0 0
8 75.7 110.1 0 0
9 95 109.7 0 0

Dihedral Coeffs # charmm

1 0.57 1 0 0
2 0.29 2 0 0
3 0.43 3 0 0
4 0.59 1 180 0
5 1.16 2 0 0
6 0.12 1 0 0
7 0.42 2 0 0
8 0.29 3 0 0
9 2.87 1 180 0
10 0.03 2 0 0
11 0.23 3 0 0
12 1.36 1 180 0
13 0.16 2 0 0
14 1.01 3 0 0

Atoms # full

3329 942 2 0.527 -16.94566076057462 -19.79980031738553 -15.736497019191228 1 0 0
3328 942 1 -1.054 -16.849205217065872 -20.572944880838822 -15.180462948324763 1 0 0
3330 942 2 0.527 -16.380498333188747 -21.204214891389597 -15.726395335858346 1 0 0
1554 350 2 0.527 -18.450265229521378 -20.41253793709395 -19.430680043735286 1 0 0
1552 350 1 -1.054 -18.708378016238665 -19.95276374734528 -18.63179611700156 1 0 0
1553 350 2 0.527 -19.178832782220265 -20.609451059281536 -18.118313810016858 1 0 0
1021 173 1 -1.054 -14.782071075711068 -17.405938510089083 -18.29977563887539 0 0 0
5327 1608 2 0.527 22.51886843054167 -0.4073726393316939 -2.1241113222275843 0 0 0
2054 517 2 0.527 -20.08874136094081 -18.760683717215937 -18.804591951395338 0 0 0
2055 517 2 0.527 -21.362164668587642 -18.125764884583866 -18.287714618989174 0 0 0
2053 517 1 -1.054 -20.610188517882577 -17.959646526407735 -18.856192165705842 0 0 0
1598 365 2 0.527 -20.67042355693056 -19.51224018205907 -22.487816938174735 1 0 0
1023 173 2 0.527 -15.144304104025226 -16.529604425358258 -18.169177604229457 0 0 0
15506 5001 2 0.527 -6.3239816000918765 -22.28300607115713 -5.896950775858425 0 1 0
11319 3605 2 0.527 5.977202990032719 -1.084336892511132 -15.890535023255627 0 0 0
10724 3407 2 0.527 -17.286998741078236 -17.470883879920272 -19.606956120659348 1 1 0
11807 3768 2 0.527 15.103144721758742 -0.9803594803814804 -12.146496893214405 0 0 0
1512 336 2 0.527 -9.125419846819083 -15.793296150250956 -21.87594914274533 0 0 0
6217 1905 1 -1.054 -7.068919078921489 -0.1395234658503206 -0.8133629017969497 0 0 0
10957 3485 1 -1.054 22.105284054425677 -18.542611213743058 -20.918377156440975 -1 1 0
2708 735 2 0.527 -16.19284583520499 -18.228362775651537 -17.281343876729416 0 0 0
4098 1198 2 0.527 -20.152461311558575 -18.54790831436468 -15.980939876191954 0 0 0
2707 735 1 -1.054 -17.089824919066633 -18.346930875672204 -16.968933227322665 0 0 0
2709 735 2 0.527 -17.450967528328984 -19.032608194508647 -17.530763030280962 0 0 0
10235 3244 2 0.527 -20.047122814722464 -17.636071850700667 -20.80074123303728 1 1 0
10958 3485 2 0.527 21.892361419699345 -18.26171133011972 -20.02843940335503 -1 1 0
6953 2150 2 0.527 20.552342400732176 -4.40372517905281 -0.5749903629515707 0 0 0
4097 1198 2 0.527 -19.67917917538159 -17.385750927043713 -15.134013137391147 0 0 0
8640 2712 2 0.527 -10.5706743282706 -1.4690369587552894 -22.53284649440357 0 0 1
10725 3407 2 0.527 -16.28542617758353 -16.476073809175958 -20.15385304704876 1 1 0
8363 2620 2 0.527 -20.80070093773572 -13.869764843687186 -16.362071961919753 0 0 1
1065 187 2 0.527 -19.755049244539702 -21.166641607297553 -15.21090780949548 1 0 0
1063 187 1 -1.054 -19.372685296394152 -21.262477544687492 -16.083171136707268 1 0 0
1064 187 2 0.527 -18.441492962211314 -21.07929039124592 -15.958457510071334 1 0 0
2734 744 1 -1.054 -17.962677960002477 -16.2895486280784 -13.874896472005283 1 0 0
2735 744 2 0.527 -17.11649344386594 -16.356362776821218 -14.317318982217747 1 0 0
2736 744 2 0.527 -17.986004186716475 -15.394881901266896 -13.535400692143188 1 0 0
10723 3407 1 -1.054 -17.220265612451414 -16.681532956441032 -20.144265998293474 1 1 0
16803 5433 2 0.527 0.8886416251334097 -15.023163207738122 -21.73932740998947 0 1 1
1022 173 2 0.527 -13.833773694268345 -17.275722882820066 -18.302249369042126 0 0 0
1133 210 2 0.527 -14.790352790116323 -19.764603471670682 -19.0839441909907 0 0 0
10688 3395 2 0.527 -17.12103349977719 -21.002331960106666 -21.826207852566633 0 1 0
10689 3395 2 0.527 -15.93274487305726 -20.580751394091475 -20.988275525191735 0 1 0
10687 3395 1 -1.054 -16.742576739391726 -21.089710561390984 -20.951356188524333 0 1 0
3715 1071 1 -1.054 -18.97133798502533 -2.5382969112389056 -22.215902352080178 0 0 0
1134 210 2 0.527 -13.38241501080314 -19.58972181854933 -19.61216609027985 0 0 0
1768 422 1 -1.054 -11.515168424994044 -19.32974577152177 -19.847308185402547 1 0 0
1770 422 2 0.527 -11.200734394932555 -18.505145502992423 -19.47663875721283 1 0 0
1132 210 1 -1.054 -14.229338189262936 -19.97942033623774 -19.829159843861042 0 0 0
13069 4189 1 -1.054 -9.764033688381549 -16.787012773054755 -17.995626857110693 0 1 0
13071 4189 2 0.527 -8.95823917811246 -16.77653195175432 -18.512168590945677 0 1 0
16308 5268 2 0.527 -11.48489012623963 -16.470120554128812 -17.972631998142216 0 1 1
3514 1004 1 -1.054 -12.960209518285641 -16.940530138896005 -14.776892262488396 0 0 0
1769 422 2 0.527 -10.777425149884591 -19.93222990610221 -19.75255647627859 1 0 0
2005 501 1 -1.054 -12.933073877532536 -20.313776513233094 -16.064570993694474 0 0 0
1832 443 2 0.527 -18.862331468827534 -5.782524492393598 -21.61503780954904 0 0 0
16307 5268 2 0.527 -12.626012730582168 -16.113440901130357 -17.043917961662498 0 1 1
16306 5268 1 -1.054 -12.437944535954662 -16.386647467776108 -17.94181470387201 0 1 1
1880 459 2 0.527 17.45120019627664 -9.639064178944158 -21.991884260652572 -1 0 0
12092 3863 2 0.527 -9.796129258735656 -20.14570790619631 -17.12082239116611 0 1 0
12091 3863 1 -1.054 -10.18089666432291 -19.457261884990604 -16.57839624556315 0 1 0
12093 3863 2 0.527 -11.022091480376211 -19.816239393104635 -16.295984382641766 0 1 0
3515 1004 2 0.527 -12.904510593030707 -17.095215554727677 -13.833918208621352 0 0 0
15463 4987 1 -1.054 -3.1574100422211373 -22.21258713336965 -4.283309131241907 0 1 0
2044 514 1 -1.054 -7.864554460812213 -20.24601395807377 -18.323553842255134 0 0 0
2045 514 2 0.527 -7.45072828561425 -20.950495407667038 -17.824871679275546 0 0 0
11667 3721 2 0.527 -8.889298455040821 -20.98213136948458 -21.383836024478576 0 1 0
11666 3721 2 0.527 -8.913568094071854 -22.26616991258767 -20.582246005580352 0 1 0
11665 3721 1 -1.054 -9.221059680207002 -21.359797865973945 -20.56926098192958 0 1 0
2046 514 2 0.527 -8.317248471189766 -20.692391803002742 -19.039127055824153 0 0 0
4378 1292 1 -1.054 -11.42159549577092 -0.0641963497319189 -5.365356949815254 0 0 0
11119 3539 1 -1.054 -10.826266422344029 -16.959458088519526 -22.069666944588445 0 1 0
9051 2849 2 0.527 6.119947351894972 -0.10004720065300887 -20.385813150659967 0 0 1
11120 3539 2 0.527 -11.361214171096707 -16.40737493281132 -21.49934676890552 0 1 0
1679 392 2 0.527 -12.43738463107757 -14.014165475429902 -14.543486037032865 0 0 0
2979 825 2 0.527 -12.970749704034734 -22.4192522546478 -2.610392610516506 0 0 0
13265 4254 2 0.527 13.155353946061052 -0.7850535013972646 -11.750387834094603 0 0 0
9939 3145 2 0.527 -3.2555050068298854 -21.107431264635352 -20.5674360580572 0 1 0
11139 3545 2 0.527 -4.978891922703433 -22.104927660704373 -16.328882214006168 0 1 0
12915 4137 2 0.527 -6.59064436978195 -20.166956752217004 -20.244405969640933 0 1 0
1570 356 1 -1.054 1.603413711428221 -13.439182021886324 -21.74795317435877 0 0 0
2830 776 1 -1.054 -5.3291924552739545 -17.735027377516047 -19.79903212526426 0 0 0
4920 1472 2 0.527 -6.532070272780828 -16.405878127257072 -19.213449350975264 0 0 0
13136 4211 2 0.527 -4.558157265015112 -18.85563149515738 -18.02182652387964 0 1 0
13135 4211 1 -1.054 -3.677617085204556 -19.02214380397091 -17.68544474446109 0 1 0
13137 4211 2 0.527 -3.7704090618100494 -18.970635470584195 -16.734147448574937 0 1 0
2831 776 2 0.527 -4.624736042161601 -17.354391411210923 -20.323520137112936 0 0 0
12970 4156 1 -1.054 -2.823458049244042 -21.447155796185996 -18.153339242509833 0 1 0
12972 4156 2 0.527 -1.89880646346516 -21.530203399800804 -17.920202968251566 0 1 0
12971 4156 2 0.527 -3.0324989266080635 -20.52882585400417 -17.9824529838598 0 1 0
2832 776 2 0.527 -5.32517127602868 -18.663979262297605 -20.02981843008612 0 0 0
4066 1188 1 -1.054 -1.6534260472275868 -16.874171120273907 -17.74201025421409 0 0 0
4067 1188 2 0.527 -2.2574603872344525 -17.58906967655555 -17.94274049578651 0 0 0
12913 4137 1 -1.054 -5.688186083872559 -20.48595116592433 -20.250855019303433 0 1 0
12914 4137 2 0.527 -5.744548610384928 -21.357613512053124 -20.642336816523144 0 1 0
11138 3545 2 0.527 -3.529399170662611 -21.683231309778183 -16.44304682121926 0 1 0
17235 5577 2 0.527 -7.28873006699736 -18.95832011577797 -16.995891254010363 0 1 1
4068 1188 2 0.527 -1.753136519101833 -16.26353001765174 -18.472356284134285 0 0 0
11684 3727 2 0.527 1.7399259979671307 -16.060153538172475 -20.004165586023195 0 1 0
11847 3781 2 0.527 -0.027689126306718492 -17.910679150503515 -17.53560188728283 0 1 0
4448 1315 2 0.527 -1.2619837891428745 -15.443015534862642 -16.472405004698594 0 0 0
11575 3691 1 -1.054 -0.26600541357419516 -21.78769511753917 -16.702233547158066 0 1 0
7880 2459 2 0.527 -12.91465141525588 -19.37353286888544 -21.888495860732608 0 0 1
3586 1028 1 -1.054 7.939266420914183 -21.792776462507682 -3.3160317900223113 0 0 0
13083 4193 2 0.527 -2.757028714349687 -8.26643024477898 -22.472414869438015 0 1 0
14288 4595 2 0.527 10.437726196117968 -2.6775318339530862 -0.6821924601830496 0 0 0
16801 5433 1 -1.054 0.34912705155558044 -15.796790797023176 -21.57606522525733 0 1 1
9910 3136 1 -1.054 4.915730971497418 -0.38727033119191034 -17.624771473800095 0 0 0
9664 3054 1 -1.054 -3.254616480989295 -16.73134205704322 -21.62720836249472 0 1 0
16802 5433 2 0.527 -0.38868676413814285 -15.470471107137072 -21.060918363221482 0 1 1
10049 3182 2 0.527 -17.52654225236416 -15.652906718762164 -21.84326516856535 0 1 0
5477 1658 2 0.527 17.169743443109073 -21.259766104195002 -4.868550171512776 0 0 0
9937 3145 1 -1.054 -3.0952630788104436 -21.4691875357019 -21.439035209190802 0 1 0
2873 790 2 0.527 -4.438298137756757 -0.03647192360506324 -5.647619614477637 0 0 0
12045 3847 2 0.527 -3.3180587758138067 -21.365409319528904 -13.721510617173896 0 1 0
3966 1154 2 0.527 11.354639723086994 -22.41233746454864 -9.202256881631731 0 0 0
10159 3219 1 -1.054 -17.247591971189884 -10.278266732380958 -21.750319186736736 0 1 0
11685 3727 2 0.527 2.643608732194984 -15.695361085173882 -18.84564298173737 0 1 0
11683 3727 1 -1.054 2.661761487468599 -15.974043399607561 -19.761195637673925 0 1 0
12536 4011 2 0.527 2.719142491138623 -19.109100864207566 -20.402738791089437 0 1 0
12535 4011 1 -1.054 2.941360438043535 -18.87932540561366 -21.304987339368758 0 1 0
3153 883 2 0.527 3.83303301669487 -15.688309159444012 -16.999123418015177 0 0 0
3151 883 1 -1.054 2.885900877386824 -15.803636500762149 -16.92250459558916 0 0 0
3152 883 2 0.527 2.567642414619378 -14.963063236604546 -16.593296286521632 0 0 0
11594 3697 2 0.527 1.7680927667152844 -18.833996103900553 -18.2605499924559 0 1 0
11595 3697 2 0.527 3.140094385628231 -18.326504195201267 -18.65036317360469 0 1 0
11593 3697 1 -1.054 2.579869235126452 -19.10154651612346 -18.691439572049557 0 1 0
12537 4011 2 0.527 2.504532698653314 -18.040680325580567 -21.453600699168188 0 1 0
11845 3781 1 -1.054 0.22842067268396704 -18.773463578088556 -17.20965591335639 0 1 0
11846 3781 2 0.527 0.49016753209466657 -18.619106373583772 -16.30197071272225 0 1 0
10611 3369 2 0.527 8.227495203404615 -22.06187855981868 -16.639746059671022 0 1 0
10609 3369 1 -1.054 8.278301492083568 -21.379626576959122 -17.30920927386152 0 1 0
10610 3369 2 0.527 7.566192457529265 -21.5844792718164 -17.915151636101385 0 1 0
11576 3691 2 0.527 0.4683560847200603 -22.006326933275567 -17.275943669959926 0 1 0
3593 1030 2 0.527 6.872811264096715 -18.07210872712276 -17.94352206135754 0 0 0
3592 1030 1 -1.054 6.012301148131716 -17.68026956586607 -17.79447707015824 0 0 0
13524 4340 2 0.527 4.265047846951983 -16.718108242396305 -20.412736436718262 0 1 0
11577 3691 2 0.527 -0.2578076347373077 -20.831664606436767 -16.655665114298234 0 1 0
13522 4340 1 -1.054 5.106921489459545 -17.17357794102514 -20.407593510384988 0 1 0
3594 1030 2 0.527 5.790751814239503 -17.263760879688498 -18.627343451695193 0 0 0
12182 3893 2 0.527 5.445777609589037 -18.429312589589237 -16.25431638675504 0 1 0
12926 4141 2 0.527 8.207265419552957 -19.73008360427838 -17.63428964363768 0 1 0
5458 1652 1 -1.054 -17.295790290359584 -17.669331537256355 -0.6858840647137328 0 0 0
12925 4141 1 -1.054 8.363310343178831 -18.879762853376786 -18.045184608579852 0 1 0
14009 4502 2 0.527 0.6585672366322051 -13.812510926790795 -15.904721815022569 0 1 0
14008 4502 1 -1.054 1.512881292157907 -13.442551967419707 -15.682218179815507 0 1 0
13741 4413 1 -1.054 8.049435102235186 -0.5087893430472938 -2.978403820257501 0 0 0
1659 385 2 0.527 8.558342012330897 -15.20960103948894 -18.997349547135478 0 0 0
13085 4194 2 0.527 1.9178187184294977 -21.09659797702357 -21.744514990978285 0 1 0
7405 2301 1 -1.054 6.142739364326989 -20.98772076070732 -21.235372046149873 0 0 1
13523 4340 2 0.527 4.894963949697399 -18.0725389078996 -20.658936883651936 0 1 0
7406 2301 2 0.527 5.784867278113577 -21.592161960698046 -21.885609267303394 0 0 1
7407 2301 2 0.527 7.067261015146457 -20.903972736872575 -21.468772973348948 0 0 1
2522 673 2 0.527 5.883485032987984 -16.025010177605814 -21.445404047276313 0 0 0
6007 1835 1 -1.054 -4.746976544209275 -16.34298429948721 -0.11897913009890004 0 0 0
7631 2376 2 0.527 9.06366747352526 -18.506577240962507 -20.175446242298726 0 0 1
12927 4141 2 0.527 9.003982392119191 -18.45247112131702 -17.4766855732205 0 1 0
1162 220 1 -1.054 10.234140142988661 -21.5931603480623 -19.743180284725106 0 0 0
9940 3146 1 -1.054 -19.43230768856633 -22.48694890889956 -20.82365234473908 0 1 0
16075 5191 1 -1.054 15.412100216458573 -19.275413953709513 -17.651870584239603 0 1 1
16077 5191 2 0.527 14.600133008748958 -19.295478915179203 -18.158365072932963 0 1 1
5094 1530 2 0.527 9.68392394568291 -15.246963233955238 -21.793706764472255 0 0 0
2719 739 1 -1.054 10.406851055707026 -19.05418450208534 -15.760634538514559 0 0 0
12621 4039 2 0.527 15.162552730401774 -18.70261962124381 -15.742615611587915 0 1 0
12619 4039 1 -1.054 15.277669774259042 -18.669363261560655 -14.792946079657156 0 1 0
2721 739 2 0.527 10.513555434965557 -19.961788955362792 -16.04541220105835 0 0 0
5092 1530 1 -1.054 8.888407441131186 -14.741364983277755 -21.627111566780314 0 0 0
11158 3552 1 -1.054 13.1304195597051 -20.29176331253855 -19.453164783061005 0 1 0
16076 5191 2 0.527 15.80104062800795 -20.13943255008663 -17.787617536011993 0 1 1
11159 3552 2 0.527 12.945417904061447 -20.069704102614903 -20.365685533043095 0 1 0
11160 3552 2 0.527 12.27857523459161 -20.528445845366818 -19.086323374040475 0 1 0
3050 849 2 0.527 14.283851846342632 -16.88951355956653 -20.704262516219018 0 0 0
3049 849 1 -1.054 13.333538250492754 -17.00264896975513 -20.722549999295392 0 0 0
3051 849 2 0.527 13.13136810039558 -17.18662741803813 -21.639888143322842 0 0 0
1163 220 2 0.527 9.583026945736247 -21.78371300117049 -20.418436744522165 0 0 0
10692 3396 2 0.527 0.2859931947212573 -0.8020214959171028 -19.141523584403007 0 1 0
2720 739 2 0.527 11.127615644185976 -18.584622671705922 -16.180444104924987 0 0 0
10161 3219 2 0.527 -16.393336486698423 -10.019614077031797 -21.404520929319766 0 1 0
3379 959 1 -1.054 21.07332512547266 -11.716156520321725 -22.401603262049406 0 0 0
7630 2376 1 -1.054 9.505468871793749 -18.550914349109984 -21.02342962689919 0 0 1
1118 205 2 0.527 11.953031230918025 -16.014185094665745 -19.80456654970294 0 0 0
12184 3894 1 -1.054 11.277994371755522 -21.739414799786346 -16.092902043889342 0 1 0
8412 2636 2 0.527 13.945010933147163 -21.397330764421362 -20.840401898124988 0 0 1
7632 2376 2 0.527 10.429749131623613 -18.6727184502002 -20.80640477246808 0 0 1
12620 4039 2 0.527 16.225218326471893 -18.712488164153072 -14.664405880386362 0 1 0
1609 369 1 -1.054 16.29895262620273 -17.26077114189981 -19.690213801969715 -1 0 0
1611 369 2 0.527 16.017339520269598 -17.621261225833052 -18.849398165104336 -1 0 0
10454 3317 2 0.527 15.148049055751688 -1.9981233471036504 -14.208025075807647 0 0 0
12185 3894 2 0.527 11.85310110164394 -21.5240491693917 -15.35866782430297 0 1 0
1658 385 2 0.527 7.929502096597975 -14.140013962761275 -19.86477934851566 0 0 0
3702 1066 2 0.527 10.473858291134068 -16.147043012918296 -16.307404483672435 0 0 0
1657 385 1 -1.054 8.211908040325653 -14.317788073572094 -18.96763206379658 0 0 0
10160 3219 2 0.527 -17.291125058655325 -11.222691373473227 -21.60066271206107 0 1 0
2597 698 2 0.527 -1.819564809492526 -0.5030989162888027 -13.792588185999637 0 0 0
8117 2538 2 0.527 8.428645529524026 -19.484132519649894 -15.027996372745939 0 0 0
8823 2773 2 0.527 7.414489209654249 -3.751514541630783 -22.005994392262203 0 0 1
84 2 5 0.09 5.189527501617926 -0.30889113057168527 -5.38411945284757 0 0 0
12044 3847 2 0.527 -2.925638847694092 -22.4609005426145 -12.753111741888068 0 1 0
6693 2063 2 0.527 -16.122595598484054 -9.990304935284529 -0.5093872574939411 0 0 0
10423 3307 1 -1.054 -14.350518820453843 -0.6970840713929007 -11.868073853980368 0 0 0
9743 3080 2 0.527 16.269791421134332 -21.274045641428277 -19.236421470528015 0 1 0
9742 3080 1 -1.054 15.775883314613989 -21.863346379535756 -18.666325450527406 0 1 0
1614 370 2 0.527 19.164513758325217 -15.637135043278679 -21.657732991539667 -1 0 0
1412 303 2 0.527 -0.7500271843653259 -2.661767654146761 -22.500066643997762 0 0 0
5476 1658 1 -1.054 17.878972319517967 -21.762699170450638 -4.468196817073277 0 0 0
3490 996 1 -1.054 17.59685366232645 -20.692141186510316 -20.191963139506512 0 0 0
16943 5480 2 0.527 19.442244386427216 -16.125477924283707 -19.07960486343656 0 1 1
16944 5480 2 0.527 19.580736949646376 -17.446419785319204 -19.806119227847372 0 1 1
4458 1318 2 0.527 20.049228698848015 -19.633851135862162 -16.217091248141212 0 0 0
4456 1318 1 -1.054 19.94786003611078 -19.847901966796332 -17.144526777369364 0 0 0
4457 1318 2 0.527 19.811206939449892 -20.795191122627497 -17.158646265494255 0 0 0
11442 3646 2 0.527 21.276463492202456 -18.727698241016707 -17.673856893927663 -1 1 0
11441 3646 2 0.527 21.867481723564307 -17.37236234112841 -17.34881444808996 -1 1 0
11440 3646 1 -1.054 21.86733234917791 -18.057493055416945 -18.017264801422137 -1 1 0
16942 5480 1 -1.054 19.358621021255384 -16.525772298794895 -19.945053657050916 0 1 1
4126 1208 1 -1.054 19.50831702440801 -15.058650323276062 -17.654974227380766 0 0 0
4128 1208 2 0.527 19.223150035052893 -14.180208225498353 -17.403480137839566 0 0 0
1610 369 2 0.527 17.180833622198133 -17.610348867969513 -19.81792948660762 -1 0 0
3491 996 2 0.527 17.626406008976257 -20.357780052067184 -21.088377821266214 0 0 0
3805 1101 1 -1.054 17.687142893292513 -17.100391475541002 -15.696899971426841 0 0 0
3806 1101 2 0.527 17.30218374118324 -16.329668742647883 -15.279739329066985 0 0 0
4036 1178 1 -1.054 17.244653863959282 -21.995490304188483 -14.876837007092014 0 0 0
4127 1208 2 0.527 20.21070794072367 -15.268365569269484 -17.039428518877667 0 0 0
11646 3714 2 0.527 19.85396787572382 -20.111795404232126 -14.32486396962695 0 1 0
1865 454 2 0.527 11.607528311023248 -13.30471150677542 -22.08236174593322 0 0 0
10447 3315 1 -1.054 20.500413273622872 -2.8055068556171143 -22.271151643451645 0 0 0
1129 209 1 -1.054 -0.540416512192305 -0.5776528935201064 -16.80484218245381 0 0 0
5170 1556 1 -1.054 -15.361496759179783 -5.717065455731085 -1.0515687484728709 1 0 0
1831 443 1 -1.054 -18.29770808070915 -5.468598472618321 -22.321352845547793 0 0 0
1879 459 1 -1.054 17.43008529858381 -8.833714742027126 -21.474973709678004 -1 0 0
9478 2992 1 -1.054 22.000959092116677 -16.221560249584783 -16.086601167676683 0 1 0
9479 2992 2 0.527 -22.196892618948336 -16.01045952474668 -16.233638466907646 1 1 0
13560 4352 2 0.527 -3.2367691579254156 -22.393980485115627 -8.38713086466731 0 1 0
1995 497 2 0.527 -20.387210014391393 -15.903302566611906 -17.637914913696772 0 0 0
752 83 2 0.527 -15.434318929272449 -13.235491908709808 -21.4714047696628 0 0 0
7105 2201 1 -1.054 19.390604803913934 -9.931347461617662 -1.5422466301284175 0 0 0
1594 364 1 -1.054 -14.534195069621447 -9.869998423907091 -20.99619826691372 1 0 0
1595 364 2 0.527 -14.435491148439786 -8.930736976685239 -21.1520049656355 1 0 0
5483 1660 2 0.527 20.7671227520152 -21.019851105265538 -0.3871532486821536 0 0 0
2480 659 2 0.527 -19.12033136065158 -14.24045044812657 -18.305538717150757 0 0 0
2479 659 1 -1.054 -18.22390384191018 -14.078356233863905 -18.5994326639318 0 0 0
2481 659 2 0.527 -18.05552886332329 -14.76408736835393 -19.24569330456984 0 0 0
8364 2620 2 0.527 -20.698096751139946 -12.70886252462507 -15.395806598026251 0 0 1
7584 2360 2 0.527 -17.62578881149613 -8.939047748295716 -18.933576717563472 1 0 1
1235 244 2 0.527 -15.22518753334462 -13.482958823977661 -18.796213517593404 0 0 0
1993 497 1 -1.054 -20.553039711633904 -14.973218812204209 -17.79178073994649 0 0 0
1994 497 2 0.527 -21.2088498728664 -14.958483471266717 -18.488864583224213 0 0 0
1504 334 1 -1.054 -22.217695934404702 -14.743233653830789 -20.109102244667405 0 0 0
9719 3072 2 0.527 -17.40321534022186 -11.204285042079896 -17.19432763250206 0 1 0
9718 3072 1 -1.054 -17.34970276034276 -11.146851721956509 -18.148302482611566 0 1 0
2652 716 2 0.527 -19.682098387150265 -10.252909623590838 -15.0876515849816 0 0 0
9720 3072 2 0.527 -17.265444594036932 -12.05492665778802 -18.439043932574737 0 1 0
1338 278 2 0.527 -19.377147086008524 -10.305859565633462 -19.619640450778792 1 0 0
2651 716 2 0.527 -20.75299752740722 -10.503565590548732 -16.127957858904228 0 0 0
2650 716 1 -1.054 -20.331347707676287 -10.899214470149076 -15.365131937507392 0 0 0
2255 584 2 0.527 -21.126222098306407 -9.27593944224772 -18.47756904692282 1 0 0
10840 3446 1 -1.054 -19.426983717395554 -6.5810686606814635 -17.181368364966644 1 0 0
1337 278 2 0.527 -19.386579018025504 -10.092163849308827 -21.118351950466337 1 0 0
1336 278 1 -1.054 -19.949858717175577 -10.341689982251843 -20.385765586206205 1 0 0
2112 536 2 0.527 -16.678989159445184 -15.121100342244112 -17.74767361052253 0 0 0
2110 536 1 -1.054 -15.760398443874257 -14.966569411679028 -17.527352655198104 0 0 0
2538 678 2 0.527 -19.19952220274604 -7.5207742179735835 -20.059916711456502 0 0 0
2536 678 1 -1.054 -19.88840229495673 -7.120263121062175 -20.590261016902726 0 0 0
3608 1035 2 0.527 -21.458610835247022 -7.273090065302485 -19.810267598457372 0 0 0
7582 2360 1 -1.054 -17.818182832030047 -8.097971947014987 -19.348071643924563 1 0 1
8362 2620 1 -1.054 -20.871079596061456 -13.649558011566139 -15.433209335566024 0 0 1
2254 584 1 -1.054 -20.94763530714832 -9.311792304985376 -17.537860947276773 1 0 0
10841 3446 2 0.527 -18.909353540291317 -5.865333553195082 -16.812569838075767 1 0 0
1327 275 1 -1.054 15.982955354921192 -3.1866812177514454 -22.25623240872242 0 0 0
2256 584 2 0.527 -20.525806964198168 -8.475254917436216 -17.341656859937515 1 0 0
2903 800 2 0.527 -19.0730531623095 -13.403416436632252 -14.065890022686112 1 0 0
2904 800 2 0.527 -18.787269940960726 -13.143956575837775 -12.60202555453876 1 0 0
1283 260 2 0.527 -17.132685789935312 -11.22342687128542 -14.421722424509463 1 0 0
2902 800 1 -1.054 -18.507311409264442 -13.679076015427254 -13.344656314662174 1 0 0
3665 1054 2 0.527 -22.285586680001806 -10.123998517112426 -14.506098775502617 0 0 0
13070 4189 2 0.527 -9.678295785651464 -17.55647620971767 -17.432772432109395 0 1 0
1234 244 1 -1.054 -14.981889106319649 -13.132443583515967 -19.653053629377514 0 0 0
1236 244 2 0.527 -14.75592830604354 -12.2179922055975 -19.482905498583797 0 0 0
1889 462 2 0.527 -15.68775779852998 -10.909530136478843 -17.78068852816887 0 0 0
1888 462 1 -1.054 -14.7343094868657 -10.993899238540159 -17.787628768819605 0 0 0
1890 462 2 0.527 -14.505212842249245 -11.202145524360029 -16.881881421773162 0 0 0
2111 536 2 0.527 -15.73034707805455 -15.020545669232892 -16.572149192616344 0 0 0
2909 802 2 0.527 20.403553729197238 -7.980887902987346 -20.785997200669506 -1 0 0
9717 3071 2 0.527 -10.383054613266685 -12.665737816730028 -21.033108187194443 0 1 0
1617 371 2 0.527 -13.398348027517091 -7.84700556094643 -18.525818961805424 0 0 0
679 59 1 -1.054 -12.628507982817094 -14.580229009004587 -20.02153512096737 1 0 0
680 59 2 0.527 -12.550395576594651 -15.159377781189226 -19.263435323345227 1 0 0
1615 371 1 -1.054 -13.14312475322359 -8.146186547881918 -17.65313238414147 0 0 0
8795 2764 2 0.527 -13.854267813245125 -11.554320473279589 -14.362847077943938 0 0 1
8794 2764 1 -1.054 -14.034898797828905 -11.724634061633207 -15.287290555312833 0 0 1
8796 2764 2 0.527 -13.530834501418793 -12.51295348434791 -15.489037287729172 0 0 1
9715 3071 1 -1.054 -10.154785637456914 -13.165968387905458 -20.24959498998358 0 1 0
9716 3071 2 0.527 -10.986354072050476 -13.531083175149137 -19.947245288348864 0 1 0
1678 392 1 -1.054 -12.530875865230758 -14.168867846754265 -15.483462949748233 0 0 0
7831 2443 1 -1.054 -10.095155023946798 -11.016383608689083 -18.146394489093595 0 0 1
7832 2443 2 0.527 -10.109557135305899 -10.181301489785996 -18.614006021793735 0 0 1
8812 2770 1 -1.054 -10.22689484892858 -12.665774790997027 -15.799738942220102 0 0 1
8814 2770 2 0.527 -9.663749099007209 -12.21016193688284 -15.174028321940753 0 0 1
8813 2770 2 0.527 -10.245635554754722 -12.093434784445147 -16.566750031371996 0 0 1
681 59 2 0.527 -13.484296796360447 -14.16402921191207 -19.918416480678214 1 0 0
1616 371 2 0.527 -13.340453175540441 -9.082825003326304 -17.653300132816035 0 0 0
7833 2443 2 0.527 -9.904990763853622 -11.666759612387024 -18.822470393403425 0 0 1
17285 5594 2 0.527 -8.592619645663271 -18.259740154546662 -21.73396248415877 0 1 1
1546 348 1 -1.054 16.085285427031334 -15.864218274044012 -22.45303668799348 0 0 0
1510 336 1 -1.054 -8.45056827377689 -15.121318426631964 -21.972132648573375 0 0 0
1511 336 2 0.527 -8.727118635052111 -14.417702671991767 -21.385042571175465 0 0 0
1186 228 1 -1.054 -10.67892924993548 -8.719999228425255 -19.79573784029971 0 0 0
1680 392 2 0.527 -11.755310154205207 -13.76384561308774 -15.871644583348992 0 0 0
1187 228 2 0.527 -11.545388062653913 -9.05417878158634 -20.02769300794313 0 0 0
3587 1028 2 0.527 8.646875477431806 -21.162822020071488 -3.452695031229549 0 0 0
9118 2872 1 -1.054 -11.499021513913174 -12.937718354252208 -12.906436859763263 0 0 1
9119 2872 2 0.527 -12.119435241872537 -13.438795715431429 -12.377061400467024 0 0 1
10380 3292 2 0.527 -4.392466666971291 -0.04176638734963589 -12.712482068622442 0 0 0
5159 1552 2 0.527 20.195492891616045 -1.4071446174821602 -5.384372764104388 0 0 0
7106 2201 2 0.527 19.323165619917656 -10.857552326394481 -1.7742519888506614 0 0 0
4918 1472 1 -1.054 -7.296889652282948 -15.830913756010446 -19.239860419639594 0 0 0
3462 986 2 0.527 -8.04980994655821 -15.079964056904307 -17.17654964374985 0 0 0
3460 986 1 -1.054 -8.18504703701088 -14.942986808751993 -16.238904515278566 0 0 0
3461 986 2 0.527 -8.560887405080845 -14.064882462113067 -16.176399615149737 0 0 0
2281 593 1 -1.054 -7.982301524176364 -0.38408516535577064 -13.259947723047237 0 0 0
9115 2871 1 -1.054 -7.325553022540559 -11.22928363107776 -21.997708687510226 0 0 1
4919 1472 2 0.527 -7.589493876004413 -15.86244661660213 -20.150694348699854 0 0 0
10695 3397 2 0.527 -2.6111633966471643 -14.533659907431922 -20.207980253638624 0 1 0
12523 4007 1 -1.054 -5.897931884585571 -12.562916638311805 -15.644841685257042 0 1 0
12525 4007 2 0.527 -6.199418749598873 -11.93000550866862 -16.29657725997596 0 1 0
17593 5697 1 -1.054 -5.097673940315364 -9.473833068200147 -18.974210313097586 0 0 1
17594 5697 2 0.527 -5.451417078967751 -9.48603175088349 -19.863562301856728 0 0 1
3578 1025 2 0.527 -7.674154416197345 -10.916761124298077 -17.96795951029382 0 0 0
2121 539 2 0.527 -6.967636109610874 -14.132589040119605 -19.74876121495107 0 0 0
10693 3397 1 -1.054 -1.794098466938678 -14.800576336841047 -19.786802736406578 0 1 0
13572 4356 2 0.527 -2.700141693478294 -14.105503962892476 -16.340964610456552 0 1 0
12524 4007 2 0.527 -5.007071238245558 -12.782415436386163 -15.917637581269567 0 1 0
2119 539 1 -1.054 -6.911529925486114 -13.220557193466949 -20.033857939698567 0 0 0
2120 539 2 0.527 -7.03512048168524 -12.710792129821268 -19.233173790939894 0 0 0
3579 1025 2 0.527 -6.220430642113104 -10.689353245137838 -18.32413842262113 0 0 0
3577 1025 1 -1.054 -6.801521064424664 -11.296772474324195 -17.86631114869933 0 0 0
3513 1003 2 0.527 -2.517347145182555 -8.276032107090384 -17.6707659084605 0 0 0
12533 4010 2 0.527 -0.6056746084514231 -21.664078057528318 -11.134124257343958 0 1 0
2653 717 1 -1.054 -0.5862852982066045 -9.912449201740163 -18.60722569032101 0 0 0
2654 717 2 0.527 -1.1380303697534728 -9.173440951513781 -18.350955162768663 0 0 0
4521 1339 2 0.527 17.797878382412943 -21.886730915663428 -0.6502636113883895 0 0 0
1600 366 1 -1.054 11.681658337566692 -10.500457008364831 -22.19278660889772 0 0 0
3512 1003 2 0.527 -3.6054231937948913 -8.465195407783796 -18.70623606546089 0 0 0
3511 1003 1 -1.054 -2.7497686302984903 -8.057294325656553 -18.573187192161726 0 0 0
1728 408 2 0.527 -1.91739339335939 -10.749413907991244 -19.273335236829244 0 0 0
7013 2170 2 0.527 -5.02285526776069 -13.175655043898118 -20.905677254809156 0 0 1
1726 408 1 -1.054 -2.5901201622239647 -11.142460094347399 -19.829377866922226 0 0 0
1727 408 2 0.527 -2.903890839850405 -10.420142154445353 -20.373468663061477 0 0 0
13570 4356 1 -1.054 -3.3786957995135545 -13.471294131929294 -16.57242150660744 0 1 0