LAMMPS data file via write_data, version 3 Nov 2022, timestep = 46000

2040 atoms
7 atom types
1528 bonds
6 bond types
1448 angles
9 angle types
592 dihedrals
14 dihedral types

-6.686333800536737 20.565975892801486 xlo xhi
-6.686333800536737 20.565975892801486 ylo yhi
-6.686333800536737 20.565975892801486 zlo zhi

Masses

1 15.9994
2 1.008
3 12.011
4 15.9994
5 1.008
6 15.9994
7 1.008

Pair Coeffs # lj/cut/tip4p/long

1 0.185199 3.1589
2 0 0
3 0.056 3.58141
4 0.1 2.93997
5 0.035 2.38761
6 0.192 3.14487
7 0.046 0.40001

Bond Coeffs # harmonic

1 0 0.9572
2 222.35 1.53
3 308.79 1.1111
4 359.76 1.1415
5 427.715 1.142
6 544.635 0.96

Angle Coeffs # charmm

1 0 104.52 0 0
2 50 109 0 0
3 26.5 110.1 22.53 2.179
4 45 111.5 0 0
5 13.0258 109.4 0 0
6 35.5 109 5.4 1.802
7 55 108.89 0 0
8 75.7 110.1 0 0
9 95 109.7 0 0

Dihedral Coeffs # charmm

1 0.57 1 0 0
2 0.29 2 0 0
3 0.43 3 0 0
4 0.59 1 180 0
5 1.16 2 0 0
6 0.12 1 0 0
7 0.42 2 0 0
8 0.29 3 0 0
9 2.87 1 180 0
10 0.03 2 0 0
11 0.23 3 0 0
12 1.36 1 180 0
13 0.16 2 0 0
14 1.01 3 0 0

Atoms # full

271 70 1 -1.054 -6.53237161362333 -1.1851351454790784 2.6454516449977152 0 0 0
42 1 5 0.09 -2.086272504706569 0.8338197069924478 -2.5353927778564307 0 0 0
41 1 3 -0.01 -1.2982048284800394 1.3013437454565064 -3.233588368569696 0 0 0
44 1 4 -0.34 -0.6531529096308857 1.9284936017335426 -2.480021189355199 0 0 0
37 1 4 -0.34 -1.2955041549845312 2.92921923246867 -4.874276728545229 0 0 0
38 1 3 -0.01 -1.9946708346541353 2.270805488828623 -4.160516827515416 0 0 0
63 1 5 0.09 -1.3807839349641418 0.957135622265695 4.274328992178054 0 0 0
64 1 5 0.09 0.21605643001936858 1.7441642650234517 4.6286632822023694 0 0 0
62 1 3 0.05 -0.526122070249893 1.5281342671364637 3.770060293097581 0 0 0
59 1 3 -0.01 -1.019180674111774 2.849037168510577 3.0660445038089748 0 0 0
65 1 6 -0.65 -0.12043463320698411 0.7336827461697597 3.0236076423327543 0 0 0
66 1 7 0.42 -0.6350561925091966 0.8008932513844913 2.20707808059878 0 0 0
58 1 4 -0.34 -0.7472096389696272 2.8793027637221797 1.9790116767325934 0 0 0
4465 1384 1 -1.054 1.416597986611281 -2.6611263306344615 0.003218103265664851 0 0 0
46 1 5 0.09 -0.555513477982502 0.537213906462112 -1.1108133282165928 0 0 0
43 1 5 0.09 -0.8636822217594498 0.5147263695509192 -3.9712556616890557 0 0 0
61 1 5 0.09 -2.1876914047832985 2.8017148198199138 3.012831214582471 0 0 0
60 1 5 0.09 -0.9764642708651632 3.713475336069658 3.850157780138451 0 0 0
51 1 4 -0.34 0.7706959176804338 2.4938270078695695 0.13391494244951296 0 0 0
55 1 3 -0.01 0.1294808669551495 3.6415238556642855 1.8082046746977092 0 0 0
56 1 5 0.09 -0.29800158662493814 4.702300111428121 1.8793570299550009 0 0 0
57 1 5 0.09 1.0630969206544378 3.5709379903303056 2.4708992249802684 0 0 0
5691 1771 2 0.527 -4.487134827358961 -0.4302269847528386 -2.703975533690683 1 0 0
5690 1771 2 0.527 -3.348061629354521 -1.0291861741961021 -1.9066941182300132 1 0 0
5689 1771 1 -1.054 -4.296532321989343 -1.0784063064688452 -2.0259143213475905 1 0 0
2330 714 2 0.527 -3.8953755170228885 -3.073032126206847 3.6571120050490595 0 1 0
2331 714 2 0.527 -5.083578321943335 -3.2206081902945263 4.583552881338646 0 1 0
2329 714 1 -1.054 -4.785350713168611 -3.423172890433223 3.696839552181741 0 1 0
2387 733 2 0.527 -0.48912694349296615 -1.6946893204921603 -0.25207940447558475 0 1 0
4477 1388 1 -1.054 -3.174999878015315 0.17563385678585064 1.6805291873998467 0 0 1
4478 1388 2 0.527 -3.622849022961562 0.6942905054397261 1.0122035439476607 0 0 1
1915 595 5 0.09 1.0763169561298715 -6.027633918647126 -5.053571837943428 0 1 0
4025 1237 2 0.527 -1.5967732595961506 3.0566626998624553 0.1711456501523676 0 0 1
4024 1237 1 -1.054 -2.180844549409822 3.1572854844639 -0.5804979619918536 0 0 1
4466 1384 2 0.527 1.6478122348303597 -1.9863748498284464 0.641562140844913 0 0 0
2386 733 1 -1.054 -1.4234234410437283 -1.635108216076259 -0.45151020414405085 0 1 0
2388 733 2 0.527 -1.809310197599947 -1.2303806518325882 0.3253550791227733 0 1 0
45 1 3 -0.01 0.1107742640732079 1.2946804234120854 -1.812599452326955 0 0 0
48 1 3 -0.01 1.150833595670389 2.180344352137457 -0.9351067371860475 0 0 0
52 1 3 -0.01 0.6874907204750338 3.633202624799564 0.37922266608857313 0 0 0
53 1 5 0.09 0.15836263103276504 4.365420406109349 -0.34335345361659453 0 0 0
4467 1384 2 0.527 1.8825211654253415 -2.407469906857253 -0.7935294839136944 0 0 0
719 219 2 0.527 -1.5997189382828632 -1.7021951422723571 4.169537319465475 0 0 0
4026 1237 2 0.527 -1.7050668890576643 2.7586826345599125 -1.3091844532540957 0 0 1
47 1 5 0.09 0.6916974211567082 0.6074634822500977 -2.493748150948889 0 0 0
39 1 5 0.09 -2.5401836842452274 2.9678549618999632 -3.4849455096242026 0 0 0
709 216 1 -1.054 -6.2173722126694715 4.250500975197296 -1.0802470067293761 0 0 0
1898 591 2 0.527 -4.950349589037464 -1.9394998575607874 -0.5073733544475125 1 0 0
30 1 4 -0.34 -0.5630572603554791 5.176421325557955 -5.820816877347622 0 0 0
54 1 5 0.09 1.6880103255638588 4.165115421895795 0.5672366530736745 0 0 0
1896 590 2 0.527 -4.698165661073536 1.4281148341640595 -1.6315644505088622 1 0 0
50 1 5 0.09 1.7553681929734513 3.034447511804716 -1.4329483682777058 0 0 0
35 1 5 0.09 -2.918439446299354 3.2277119487008665 -6.188767401182828 0 0 0
1894 590 1 -1.054 -4.4684632484758495 1.7132007442866062 -0.7471463013183941 1 0 0
1143 339 2 0.527 5.07405108389826 -6.3526215576433485 -4.944424922928182 0 0 0
718 219 1 -1.054 -2.442318171138907 -1.804386073538235 3.727026020316373 0 0 0
720 219 2 0.527 -2.434231465558133 -1.1390966019018798 3.038871044963063 0 0 0
4706 1464 2 0.527 0.7300358275003802 3.0163505269731985 -5.16716970333548 0 0 1
4479 1388 2 0.527 -3.8082203805335317 0.10663301021228655 2.39502442399637 0 0 1
5707 1777 1 -1.054 -5.256294220861557 -2.0134207345489807 -6.498082411195949 1 0 1
5708 1777 2 0.527 -5.121645042583734 -2.3292576745167937 -5.604578412373267 1 0 1
2564 792 2 0.527 7.263011340303576 -6.434544771082154 -6.527411443102619 0 1 0
40 1 5 0.09 -2.7605349110412316 1.5062806501964765 -4.591008018538223 0 0 0
1899 591 2 0.527 -5.821627097486608 -1.5163695246463273 0.6561272352246226 1 0 0
6156 1905 2 0.527 -4.918936795616677 4.63022323813809 -4.382892258212012 0 0 1
34 1 3 -0.01 -1.7734531438785055 3.1299656760466394 -5.913349727552135 0 0 0
2117 643 2 0.527 -4.953875188079992 4.13722885240764 3.003435465135885 0 0 0
31 1 3 -0.01 -1.2973645131912939 4.487091886319815 -6.47213611831867 0 0 0
1895 590 2 0.527 -3.7351861312922696 2.315642805318525 -0.8720502529981928 1 0 0
3842 1189 5 0.09 1.282451240007652 4.666023285745718 4.868376241950337 0 0 0
1156 344 1 -1.054 -2.703504385804977 -4.87091869646404 -3.892826633114414 0 0 0
273 70 2 0.527 -6.049538887817014 -1.9305424729260272 3.0024854782065287 0 0 0
4698 1461 2 0.527 -2.7974955462962288 6.4483280206168825 -0.27420407332905317 0 0 0
1157 344 2 0.527 -3.0836151640672385 -5.714641735247294 -4.1375302933856 0 0 0
1666 514 1 -1.054 -4.798937477873215 -3.28457671078847 -3.9187505081701617 1 0 0
4206 1297 2 0.527 17.58965904922978 3.9391884129614567 6.774693310713371 -1 0 0
4677 1454 2 0.527 -0.33434795797071626 -1.3404632019570517 6.173161277386262 0 0 0
2839 884 1 -1.054 -0.4131075856452311 -5.006191319108399 -1.755057212858243 0 1 0
2840 884 2 0.527 -0.6497469036686381 -4.40219056783041 -1.0511981493686378 0 1 0
4696 1461 1 -1.054 -2.3087093876248392 5.98597352561165 0.4066403160395087 0 0 0
4697 1461 2 0.527 -2.4198889757668613 5.059220418173556 0.19450733612587268 0 0 0
2116 643 1 -1.054 -4.583823814581369 3.704598181149432 3.7729323261650975 0 0 0
2118 643 2 0.527 -4.884694798218812 2.798335147754134 3.7066247382151936 0 0 0
5384 1669 2 0.527 -5.746203330270435 5.106635529529372 1.1092548795640784 1 0 0
2555 789 2 0.527 -1.2401918461718058 -2.185605405244112 -5.209518350122805 0 0 0
2596 803 1 -1.054 3.7195748300216636 -5.454014542321147 0.5144259871678587 0 1 0
467 135 2 0.527 -3.9113199127420617 -3.860512568580757 -0.7746687473918401 0 0 0
2597 803 2 0.527 3.90106355280753 -5.097138296180074 1.3838705757762852 0 1 0
4676 1454 2 0.527 0.4723190250853495 -1.656035539846111 4.931549422839813 0 0 0
5383 1669 1 -1.054 -5.363876476394047 5.474502627581224 1.9059559436360143 1 0 0
2841 884 2 0.527 -1.249062313492301 -5.359649488718974 -2.0591618542227685 0 1 0
2598 803 2 0.527 3.180664577110605 -4.78709098597338 0.08896020564651241 0 1 0
7615 2371 1 -1.054 -2.6225424192968623 -0.9438840564123518 -6.386512004205152 1 0 1
1759 545 1 -1.054 16.62950038317123 0.49432892745417156 6.4616037727510065 0 0 0
1668 514 2 0.527 -4.853818673390775 -2.6510528504796023 -3.203300870031572 1 0 0
466 135 1 -1.054 -3.360929832024522 -4.578304975062191 -1.087842016717099 0 0 0
468 135 2 0.527 -3.563849948683105 -5.308846691756009 -0.5035778940962103 0 0 0
692 210 2 0.527 -1.4805052587316023 6.029932129328092 -4.46582991330124 0 0 0
3614 1121 2 0.527 20.267515710691615 -4.765193616971379 -5.27342868432596 0 1 0
761 233 2 0.527 1.4750355096868013 -0.10343387318215846 2.25722388691835 0 0 0
649 196 1 -1.054 1.3825391982215667 -3.5115676864380294 -3.165378606841969 0 0 0
650 196 2 0.527 0.9341570855045038 -4.1804684124797244 -2.6479252732120715 0 0 0
303 80 2 0.527 0.3550403756153031 -3.8536702433040304 1.0687585560419492 0 0 0
104 14 2 0.527 -5.257186063832007 1.8001740169808578 -4.015291409104184 0 0 0
2210 674 2 0.527 -4.873672660041466 0.22017182532664226 4.510422208671839 0 0 0
4675 1454 1 -1.054 -0.3511170525667202 -1.8649466152345076 5.372618529750309 0 0 0
1667 514 2 0.527 -4.051744937379544 -3.838299835631058 -3.692196746154935 1 0 0
3615 1121 2 0.527 -6.397599020081024 -4.375952363116013 -3.9334323063899923 1 1 0
3843 1189 3 -0.01 0.05858831780925833 5.663275344106147 6.441338899539653 0 0 0
4713 1466 2 0.527 3.639849551229304 -6.0012851842596735 6.543601945207367 0 0 0
2350 721 1 -1.054 -6.605786805673646 2.036571413772858 -6.589407790462923 0 0 0
2352 721 2 0.527 -6.2444317483723335 2.7556676876663655 -6.071184053693322 0 0 0
2211 674 2 0.527 -5.714144560574853 0.5697158995202631 3.300743218605854 0 0 0
2556 789 2 0.527 -0.8420797035252772 -3.592064118742688 -4.815465076882036 0 0 0
4736 1474 2 0.527 7.201523170407938 -4.697771464649708 6.659186907570497 0 0 0
7617 2371 2 0.527 -3.4564405886141643 -1.3607042656585184 -6.603554063198801 1 0 1
2670 827 2 0.527 -3.5071831627804078 -4.986385037675153 2.8482493622306944 0 1 0
2209 674 1 -1.054 -4.968652012272179 0.8743361716757301 3.8181212285357073 0 0 0
3845 1189 5 0.09 -0.34761743477508933 6.329301866218721 5.631368408170692 0 0 0
4705 1464 1 -1.054 1.559807727836649 2.7967871950521666 -5.590847601901955 0 0 1
4 1 6 -0.65 -4.157869094399286 6.289241441456872 -2.142734592527866 0 0 0
3840 1189 3 -0.01 1.3881136699946612 5.010499377474282 5.9524910885450915 0 0 0
760 233 1 -1.054 2.048174631228836 -0.7066055108188429 1.7840133605661705 0 0 0
2846 886 2 0.527 -3.443753992975893 6.318664212375044 4.880125184455553 0 0 0
3852 1189 5 0.09 -3.213262710389753 4.714418075218642 6.100046738260907 0 0 0
5217 1613 2 0.527 10.376663290355602 -2.461832611661496 -5.711857706712972 0 0 1
3856 1189 5 0.09 -1.4884972808316563 2.5231639744230456 6.396660045688394 0 0 0
2554 789 1 -1.054 -0.5082439442562183 -2.696252492464648 -4.863506024620943 0 0 0
4737 1474 2 0.527 8.385996600872474 -3.9007366942563055 6.155544491858892 0 0 0
711 216 2 0.527 -5.713349511988717 3.6235975664378444 -0.5614156344883954 0 0 0
2966 905 2 0.527 1.8057638408089165 -6.091510603496824 3.57560227409358 0 1 0
1897 591 1 -1.054 -5.417058347704968 -2.284851222839219 0.2536444112510159 1 0 0
2669 827 2 0.527 -2.691445335817502 -5.885600842042111 3.7526166604525866 0 1 0
103 14 1 -1.054 -5.296787889505503 0.91755698617329 -3.646982238593409 0 0 0
5385 1669 2 0.527 -5.665796100036687 6.382734536895846 1.9198122168648322 1 0 0
3283 1011 1 -1.054 20.205862856478863 -5.725801301829403 3.9985826205752844 0 1 0
199 46 1 -1.054 20.541901697650708 1.633634974663492 1.2951048415666078 -1 0 0
200 46 2 0.527 -5.994836305009082 1.486585906322576 0.6765853052620843 0 0 0
920 286 2 0.527 14.66246156093872 5.827035683949054 -5.108152190520203 0 0 0
6381 1980 2 0.527 -0.6930570347158165 -3.793666137757648 6.14957387340764 0 1 0
651 196 2 0.527 0.6763607670156544 -3.0084862648909727 -3.570907600340633 0 0 0
6379 1980 1 -1.054 -0.8491101256463711 -4.562824225192816 6.697548363475034 0 1 0
3 1 5 0.09 -5.81692547629935 6.89332097300221 -1.4513964092993419 0 0 0
5 1 7 0.42 -3.4040000465610873 6.632125564861438 -2.660506366580039 0 0 0
1900 592 1 -1.054 2.921642250216143 -1.2909684084067496 -2.283194032501452 1 0 0
1901 592 2 0.527 2.893743756992567 -0.6615837358795886 -3.0038388151657336 1 0 0
4707 1464 2 0.527 2.227624267380861 3.1892811101405147 -5.028528989281191 0 0 1
708 215 2 0.527 2.0913666072038986 1.0302165895991129 -5.0077946470859835 0 0 0
5215 1613 1 -1.054 10.878971452864306 -2.406814114656071 -6.524810463129614 0 0 1
6741 2080 5 0.09 10.925371901501027 6.373484763775517 -6.3806786179146595 0 0 1
1902 592 2 0.527 2.4562488979019257 -2.0581596127037063 -2.616449278522124 1 0 0
899 279 2 0.527 8.643706142944312 4.619400097054376 2.089621209893309 0 0 0
26 1 5 0.09 1.5976515047614193 5.719620845991187 -4.580395514814145 0 0 0
7619 2372 2 0.527 -2.907433668932191 -6.495772983402379 6.451793529616372 1 1 0
710 216 2 0.527 -5.56656467032391 4.681982649877741 -1.6338765915448175 0 0 0
6154 1905 1 -1.054 -5.538785928763345 3.9273500644078663 -4.187984346110838 0 0 1
2162 658 2 0.527 3.5736041260291014 -0.29056780528537907 6.839451414837747 0 1 0
5185 1603 1 -1.054 18.836476196650867 1.3835484814764598 5.152163702271146 0 0 0
4667 1451 2 0.527 5.059574468082573 -2.447193200324989 -4.856825254118671 0 0 1
301 80 1 -1.054 0.10935801398329925 -4.226174136223596 1.915584269058801 0 0 0
2668 827 1 -1.054 -2.7942264232792065 -5.624982118546841 2.837331687977194 0 1 0
105 14 2 0.527 -6.1133104364699875 0.90227603865962 -3.147692538690181 0 0 0
1007 298 5 0.09 10.013627562403205 -5.783985304869613 -0.977596647645 0 0 0
1158 344 2 0.527 -2.9393477666402665 -4.759512476179084 -2.971849326054421 0 0 0
6155 1905 2 0.527 -6.357503305365849 4.379204408832937 -3.983626168564572 0 0 1
691 210 1 -1.054 -2.1512358013801363 6.604443227122474 -4.096654767852564 0 0 0
5669 1764 2 0.527 19.9264968609049 -5.664487212078832 0.1531638078382338 0 0 0
919 286 1 -1.054 15.312722045641745 6.365797845819204 -5.558850943076585 0 0 0
2918 892 5 0.09 17.04699349961993 6.060900995761777 -1.5545798803083795 0 0 0
2965 905 1 -1.054 2.026647126492362 -5.167999931428097 3.6963137429950415 0 1 0
921 286 2 0.527 16.10192320471437 5.824443999108954 -5.57702409024182 0 0 0
997 298 5 0.09 13.569323183953788 -6.633852154835051 -3.1824757797184016 0 0 0
2208 673 2 0.527 -6.038643598780836 4.324912979343967 5.010043365072839 0 0 0
1002 298 3 -0.01 12.20322734251851 -5.742626122988107 0.1545014560647715 0 0 0
27 1 3 -0.01 0.24669636150719398 5.813266885832251 -6.3299706688887865 0 0 0
7122 2206 2 0.527 7.818817500014546 6.410644166603122 2.625635432892036 0 0 0
2804 872 2 0.527 9.544067835291933 6.873703248624357 0.9094202781771044 0 0 0
1006 298 3 -0.01 10.23522401056017 -5.885159689955556 0.1401994056844167 0 0 0
5668 1764 1 -1.054 20.311337579164267 -6.239927614181739 -0.507894978408447 0 0 0
993 298 5 0.09 12.52119868077105 -4.855978521197985 -4.632609400668181 0 0 0
5187 1603 2 0.527 18.70731773686782 2.1821365881540427 5.663835360874474 0 0 0
1020 298 7 0.42 6.537879012518232 -6.255201671520844 1.4826869286371451 0 0 0
3806 1185 2 0.527 13.226835301988249 1.9792187561148413 6.331054397388614 0 0 0
4523 1403 2 0.527 18.18459801124686 -6.386927338248804 2.6344882309422903 -1 0 0
1660 512 1 -1.054 5.686363547311187 5.542611260237274 -0.8948339956666445 0 0 0
2207 673 2 0.527 19.82390399767394 4.732244739628181 5.451109825547009 -1 0 0
3846 1189 4 -0.34 -0.678244329263376 4.835660117319371 6.82834894583792 0 0 0
36 1 5 0.09 -1.0861719996165373 2.436093910101903 -6.517662146030183 0 0 0
962 298 5 0.09 12.237870377228852 4.171409742945736 -6.656474129398535 0 0 0
4666 1451 1 -1.054 5.831484325748621 -1.9276554862676125 -4.632173766051148 0 0 1
898 279 1 -1.054 8.432451154811591 4.988843681282873 1.2322324707761512 0 0 0
266 68 2 0.527 12.616455098321037 3.8800725415637007 6.63400974648758 -1 0 0
49 1 5 0.09 2.022365972246119 1.4856237688021139 -0.7803194911528806 0 0 0
7624 2374 1 -1.054 -6.581547280278469 -5.501151264761143 6.702312602175063 1 1 0
707 215 2 0.527 2.772127046834319 -0.31219827873865746 -5.17022938909703 0 0 0
4679 1455 2 0.527 5.616996686708491 -4.3669495262738085 -1.3462969941094522 0 0 0
888 275 2 0.527 2.3407087074821167 -3.268482079236041 4.496324950794699 0 0 0
3839 1189 4 -0.34 1.90585546168316 4.32024623339222 6.705733872146872 0 0 0
6025 1862 1 -1.054 6.5988960610210405 3.3050194274888227 -4.584033334784129 0 0 1
416 118 2 0.527 4.93524160504035 0.8474097874036799 -5.311861114379931 0 0 0
1398 424 2 0.527 17.0538352181386 -6.037028756525016 -4.227982476328884 0 0 0
417 118 2 0.527 6.062003900965896 -0.16291830643376137 -5.272602883297033 0 0 0
299 79 2 0.527 5.1462934396981765 -1.8859863137375719 2.8228066673039827 0 0 0
6477 2012 2 0.527 4.796241006824959 3.555798658647669 -4.31461818566752 0 1 1
3838 1189 5 0.09 2.50892658503626 2.858733772052169 5.681689009920676 0 0 0
298 79 1 -1.054 4.445216636681831 -1.3652215652335045 3.2146333307161576 0 0 0
415 118 1 -1.054 5.873419685505983 0.7530699489291326 -5.476647640663105 0 0 0
4070 1252 2 0.527 7.6252774586883945 4.071336203380305 -3.365661672337737 0 0 1
4069 1252 1 -1.054 7.964204284272654 4.7007865533992845 -2.729145131885348 0 0 1
762 233 2 0.527 2.8001947239055607 -0.8276659474991614 2.363705379506232 0 0 0
300 79 2 0.527 4.801907708017184 -0.4781270478013768 3.260103105114636 0 0 0
6476 2012 2 0.527 3.8856494599381044 4.6543678481097075 -3.808786006046503 0 1 1
3836 1189 3 -0.01 2.7660481889538673 3.7575722928744586 6.273552368594364 0 0 0
1008 298 5 0.09 10.104286030327359 -4.796053196992313 0.5660279934394676 0 0 0
961 298 5 0.09 12.17109488701832 3.137493369935825 -5.009405717628399 0 0 0
939 292 2 0.527 2.6526507729220405 -3.5078967621776167 -4.4242073713456165 0 0 0
1227 367 2 0.527 3.398065006228233 5.935709621049206 2.8347643004913152 0 0 0
2916 892 5 0.09 16.028200038304504 6.824243022074164 0.5480996768707094 0 0 0
1397 424 2 0.527 18.363792849486195 -5.450071390544304 -4.709011992763793 0 0 0
937 292 1 -1.054 3.3292191829209745 -3.616989148511717 -5.092478634661881 0 0 0
4623 1436 2 0.527 7.91286917629278 0.22937637244272668 2.433962995645354 0 0 1
4622 1436 2 0.527 9.030670221639138 -0.6251211835508457 2.992758193486461 0 0 1
4711 1466 1 -1.054 3.090633716645282 -5.244828461727594 6.749436688382591 0 0 0
703 214 1 -1.054 3.889205833418009 4.341839651827032 2.427508187529524 0 0 0
3807 1185 2 0.527 14.510699447487244 1.1835105909847279 6.228883723488153 0 0 0
4621 1436 1 -1.054 8.400329268037225 -0.5787059085344488 2.2739059047078545 0 0 1
7152 2216 2 0.527 17.171859098272904 6.835750237699189 6.392149191612555 0 0 0
892 277 1 -1.054 10.254729810376912 -2.0066816794614217 3.7769140205858402 0 0 0
3165 971 2 0.527 4.613543223153888 -4.226256509748936 6.710262236021611 0 0 0
1155 343 2 0.527 5.536156984212575 1.812233460460087 2.9783865256046322 0 0 0
5201 1608 2 0.527 7.800874324516135 -0.9522417449871918 0.25708433987178303 0 0 0
3837 1189 5 0.09 3.394159533261174 4.424790234223979 5.547184040989986 0 0 0
5202 1608 2 0.527 7.059567957629245 -0.25956905546580256 -0.866555683375859 0 0 0
4493 1393 2 0.527 7.967122184651448 2.3202148608455495 3.675955242617432 0 0 0
4494 1393 2 0.527 7.417775880398727 0.9943933093774211 4.157943666536305 0 0 0
705 214 2 0.527 4.114757767957123 4.5685259777022935 1.525304016030553 0 0 0
704 214 2 0.527 3.7737328655426516 3.3917184456608904 2.4145303475376156 0 0 0
851 263 2 0.527 6.770129384351705 -3.817955636065045 2.0808519577648106 0 0 0
850 263 1 -1.054 6.533357832492122 -2.8922887265055666 2.0232953685127963 0 0 0
4680 1455 2 0.527 7.092387120775543 -4.578690126685368 -1.6114121125489413 0 0 0
6475 2012 1 -1.054 3.875635823842403 3.7603748288448458 -4.150705285940251 0 1 1
881 273 2 0.527 10.555297802778004 2.6363267527862675 -2.303553371797803 0 0 0
392 110 2 0.527 4.591660658064104 -1.9838761861260714 -2.0057345665620616 0 0 0
393 110 2 0.527 5.997021577989489 -1.9563044107534964 -1.4435090135442668 0 0 0
391 110 1 -1.054 5.432324955174467 -2.439785881629289 -2.0464981693729083 0 0 0
2806 873 1 -1.054 8.584455332590808 -3.5541532065235866 -1.8680794312011315 0 1 0
1154 343 2 0.527 4.3993741944617994 1.2553533793259692 2.14802115283187 0 0 0
1153 343 1 -1.054 4.58293785849752 1.726863057470183 2.960557653984683 0 0 0
2042 618 2 0.527 18.88134230245802 6.465525774684709 3.202070565575715 -1 0 0
852 263 2 0.527 7.340560635051917 -2.42436323694415 2.2370759261370274 0 0 0
2808 873 2 0.527 8.050973310072793 -2.9365413642697145 -1.3678943315552434 0 1 0
2807 873 2 0.527 9.480558081337346 -3.232737040677476 -1.768459674566297 0 1 0
4748 1478 2 0.527 7.767836130630352 -2.7048392250894118 -4.6717155683517095 0 0 0
4749 1478 2 0.527 8.772538275204917 -3.459691618932772 -3.827518438956555 0 0 0
4747 1478 1 -1.054 8.649869231290012 -3.0758801234358386 -4.69577747570361 0 0 0
7618 2372 1 -1.054 -2.6800412533439877 -6.256827279429439 5.553222213785995 1 1 0
3070 940 1 -1.054 8.706717862442575 -2.0389739929324637 6.149936735717809 0 0 0
3071 940 2 0.527 9.192056028195978 -2.3295556833802005 5.377769730159933 0 0 0
4678 1455 1 -1.054 6.261405479594147 -5.0481438164287304 -1.5385058099291467 0 0 0
4492 1393 1 -1.054 7.431909089829633 1.5767461903694535 3.398405631495171 0 0 0
5200 1608 1 -1.054 7.565238641344365 -1.0471129333261162 -0.665795947964618 0 0 0
938 292 2 0.527 2.851568179654622 -3.6042398194701426 -5.921887894052223 0 0 0
969 298 5 0.09 8.714810552169935 2.1095531836196386 -6.114388007183827 0 0 0
5476 1700 1 -1.054 6.77364209469007 0.03589377847778241 5.623416113071862 0 0 0
2661 824 2 0.527 4.013414093651782 -5.034932241437856 -3.8734323029643476 0 1 0
5478 1700 2 0.527 7.144980252308869 -0.8267949167087867 5.808102179004278 0 0 0
2659 824 1 -1.054 4.272962649173934 -5.836549191871052 -3.419254444435438 0 1 0
2660 824 2 0.527 4.998468557206586 -5.5686549615457395 -2.8552451231394405 0 1 0
1225 367 1 -1.054 3.279439830613411 6.8056726993813434 3.2159794138289897 0 0 0
5477 1700 2 0.527 5.881362843686372 -0.00832692294584536 5.967094779841828 0 0 0
1761 545 2 0.527 17.427864161788747 0.7198307675920628 5.9841134906798885 0 0 0
1019 298 6 -0.65 6.753994098680762 -5.54164976504886 2.0994601908458908 0 0 0
3308 1019 2 0.527 9.784996896888803 3.4416195613766742 3.9002851094952025 0 0 0
5433 1685 2 0.527 7.334900482954579 6.487337229726428 -3.6241106018265095 0 0 1
4071 1252 2 0.527 8.85819912293931 4.407072367867132 -2.553822884480315 0 0 1
4735 1474 1 -1.054 8.07673551434181 -4.797361380806665 6.284596570996955 0 0 0
3279 1009 2 0.527 12.81943432341603 5.880878504013596 -2.5318344339346677 0 0 0
3309 1019 2 0.527 8.854756035388743 4.5547578460754075 4.333265966897786 0 0 0
7109 2202 2 0.527 10.940071889480265 1.4413209383143233 5.289362080559236 0 0 0
1005 298 4 -0.34 11.272621978781114 -6.403319444497346 0.21021449903215217 0 0 0
706 215 1 -1.054 2.3453297112754328 0.24640480538289733 -4.520583910193273 0 0 0
2163 658 2 0.527 3.4836922608808987 -1.3380245233144024 5.750118458104559 0 1 0
5216 1613 2 0.527 11.319322070339641 -1.5582152613182378 -6.477865227642145 0 0 1
4082 1256 2 0.527 18.06165290808138 4.525104556667422 3.393228631381618 -1 0 1
3307 1019 1 -1.054 8.968488377146732 3.881114035073855 3.662817157990796 0 0 0
1805 560 2 0.527 10.140681443949724 -5.281994462133996 2.60461274307076 0 0 0
3854 1189 3 -0.01 -2.579888086068663 2.5804372102146385 6.6992220079630265 0 0 0
968 298 5 0.09 9.859686661796967 3.156184322432436 -5.119524727673852 0 0 0
967 298 3 -0.01 9.780868004103205 2.136679041919157 -5.690646803743516 0 0 0
6027 1862 2 0.527 6.457135055378414 2.3590632245801064 -4.620134765534428 0 0 1
973 298 5 0.09 8.913206842315201 0.18894279759453703 -4.730282962996507 0 0 0
971 298 3 -0.01 9.622281538769165 0.8928311413583145 -4.160542768611988 0 0 0
972 298 5 0.09 8.991096136503534 1.6364941068025054 -3.56031608939019 0 0 0
1806 560 2 0.527 10.778141543532989 -5.095838492699599 3.9650861655337195 0 0 0
1804 560 1 -1.054 10.82518527460887 -4.790849159675858 3.058995036618551 0 0 0
886 275 1 -1.054 2.1956898889694116 -2.3284478165113223 4.603739120013255 0 0 0
3841 1189 5 0.09 2.051737367514196 5.947212958837026 5.855201490632112 0 0 0
1662 512 2 0.527 5.004365857491182 5.6852520659634465 -1.5511612635780212 0 0 0
887 275 2 0.527 2.8804348015841192 -1.9180904325020567 4.075568936887796 0 0 0
900 279 2 0.527 8.286776051774966 4.226669469082884 0.6717844668084902 0 0 0
1004 298 5 0.09 12.214145660752202 -4.569168117474 0.08802924622189412 0 0 0
5186 1603 2 0.527 19.59055928364142 0.9570502805256496 5.559214965782726 0 0 0
4668 1451 2 0.527 5.807166632152708 -1.8621668862015994 -3.677525920939264 0 0 1
880 273 1 -1.054 10.188669593507491 3.2961426884290628 -1.7149454866775313 0 0 0
882 273 2 0.527 10.94142840090479 3.822756060638252 -1.4461239983109637 0 0 0
7108 2202 1 -1.054 10.850925664892575 1.8707823833922586 4.438569234951176 0 0 0
974 298 3 -0.01 10.491827161119975 -0.05485013574659536 -3.247927065040452 0 0 0
970 298 4 -0.34 10.175464938747083 1.194250285826758 -5.138168051060625 0 0 0
255 64 2 0.527 8.890505156925204 5.411312309729379 6.377606623553779 0 0 0
999 298 3 -0.01 13.2504093652765 -6.186046553465829 -0.8664563319706113 0 0 0
1012 298 4 -0.34 9.182572679430624 -6.6066942090006675 1.9663919549474684 0 0 0
7070 2189 2 0.527 12.959733002644253 4.723862376563073 0.04851966473261626 0 0 1
6026 1862 2 0.527 6.819876298397492 3.5490451255727073 -5.482839064996092 0 0 1
1016 298 3 0.05 7.207312419292927 -6.043780182117856 3.015884239769047 0 0 0
975 298 5 0.09 9.709530115110667 -0.5011034043794762 -2.4886768114099924 0 0 0
254 64 2 0.527 8.455323520910216 6.7047957510378176 5.7223090776233665 0 0 0
3544 1098 1 -1.054 3.7596649914266465 6.222695060846091 -2.8262592074931723 0 1 0
1017 298 5 0.09 7.531958080088851 -5.268609845479575 3.777491752591981 0 0 0
1018 298 5 0.09 6.307214279299281 -6.6681983200696315 3.4876184915297284 0 0 0
3545 1098 2 0.527 3.3204979809531903 6.472190670204315 -2.013168384202351 0 1 0
980 298 5 0.09 11.606652492469166 -0.6530465542564539 -1.3026728293069603 0 0 0
1854 576 2 0.527 14.069911835996319 -6.167684101955275 3.4357070783597123 0 0 0
2915 892 5 0.09 15.130932392845402 6.194713505621186 -0.8084454844480069 0 0 0
24 1 3 -0.01 1.1019322332712251 6.480473933115315 -5.266523863232508 0 0 0
253 64 1 -1.054 8.726117622298041 5.808714102085736 5.5224567645497356 0 0 0
963 298 4 -0.34 11.945892127859462 2.287170915518228 -6.682761793031816 0 0 0
977 298 4 -0.34 11.448747288829814 0.4738540988316604 -2.9473582299224255 0 0 0
3805 1185 1 -1.054 13.580096402424704 1.1506178847454445 6.007233538266181 0 0 0
976 298 5 0.09 10.890108235751924 -0.8991361807050424 -3.951215445106257 0 0 0
3285 1011 2 0.527 -6.3110728171336765 -6.228012031546211 3.6475239718375203 1 1 0
1221 365 2 0.527 11.582311174788906 0.39386940946214555 -5.637646188589654 0 0 0
4712 1466 2 0.527 2.2107413551958395 -5.5060860495344555 6.4778365247379135 0 0 0
6380 1980 2 0.527 -1.6267377829404284 -4.973219122600837 6.319257466282874 0 1 0
1661 512 2 0.527 6.470759700788555 5.3388629831206575 -1.404188488068141 0 0 0
4782 1486 5 0.09 13.90764308707094 -6.499011415705664 6.744587403006205 0 0 0
2300 704 2 0.527 15.480132021061532 4.963943937342993 5.950310727065522 -1 0 0
5192 1605 2 0.527 19.114548140039098 -3.1162013714675187 0.6260013737717145 0 0 1
2378 730 2 0.527 -6.519210196841518 -4.71667521673165 2.3724820723436046 0 0 0
2379 730 2 0.527 -6.079066590958133 -3.8572632283358628 1.2064709007580419 0 0 0
5575 1733 1 -1.054 13.352012821408959 -3.861669599926013 3.9515590917363994 1 0 1
302 80 2 0.527 -0.8357301563540096 -4.364019546240275 1.8520252109548085 0 0 0
4757 1481 2 0.527 12.619509741616643 5.882817820673337 3.772287186783883 0 0 0
3722 1157 2 0.527 13.066667241305705 1.5087101827460803 1.535290516987743 0 0 0
7094 2197 2 0.527 15.19123262407463 -3.5585539574002687 -0.48430657582847214 0 0 0
3834 1189 5 0.09 4.597988433946341 2.8709044556132515 6.7517328198943165 0 0 0
4758 1481 2 0.527 12.800379997420983 5.978745109312017 2.272293379665687 0 0 0
285 74 2 0.527 11.55917489379043 -3.9581464398673103 -1.9390161554536345 -1 0 0
4083 1256 2 0.527 17.108247056599915 5.641646199680217 3.7623480123550213 -1 0 1
2206 673 1 -1.054 -6.504635861412119 4.814040006616612 5.688157457978978 0 0 0
2299 704 1 -1.054 15.986730909365896 4.872164567434458 6.757259726378891 -1 0 0
994 298 5 0.09 14.092407581023156 -5.377328641177873 -4.614870265121561 0 0 0
1420 432 1 -1.054 12.914342220491498 4.330035899126038 4.585214051795628 0 0 0
987 298 5 0.09 15.036959943103792 -1.9431372989541353 -2.8249471808732425 0 0 0
201 46 2 0.527 19.79288849649641 1.1807904484686036 0.9076209522903227 -1 0 0
1428 434 2 0.527 14.949062166106224 -4.4079638671674495 -2.387100250333442 0 0 0
3581 1110 2 0.527 16.100147132580002 -0.3852225221880392 2.0179016607819094 0 0 0
992 298 3 -0.01 13.391219735822887 -4.804999983697103 -3.9254202468023247 0 0 0
989 298 5 0.09 13.343876090112698 -2.8485608403062104 -5.145480789476355 0 0 0
991 298 4 -0.34 13.694341963001264 -3.758768994327313 -3.4893102349215637 0 0 0
4756 1481 1 -1.054 12.774248466432677 6.511392162379053 3.0671751428150333 0 0 0
1427 434 2 0.527 15.951585639673318 -5.446887592950011 -1.9315991206056022 0 0 0
3284 1011 2 0.527 20.389303470567413 -5.654602207413747 4.935339185803658 0 1 0
4777 1486 5 0.09 15.134355122091595 -4.6930885508907885 6.287972482243747 0 0 0
3580 1110 1 -1.054 16.05216717485014 0.11080652809020286 1.2006589005119563 0 0 0