LAMMPS data file via write_data, version 23 Jun 2022, timestep = 200000

4948 atoms
5 atom types
2432 bonds
1 bond types
1216 angles
1 angle types

-16.16 16.16 xlo xhi
-16.16 16.16 ylo yhi
-40 40 zlo zhi

Masses

1 15.9994
2 1.008
3 28.99
4 35.453
5 26.9815

Pair Coeffs # lj/cut/tip4p/long

1 0.185199 3.1589
2 0 0
3 0.0469 2.4299
4 0.15 4.0447
5 11.697 2.574

Bond Coeffs # harmonic

1 0 0.9572

Angle Coeffs # harmonic

1 0 104.52

Atoms # full

354 0 5 0 -10.799944377415049 -14.794863440966028 -21.77135880136216 0 0 0
382 0 5 0 -14.821676454878524 -14.733927239387306 -21.671998987146758 1 0 0
104 0 5 0 -8.76148126758596 -14.787328488672491 -23.641452135777794 0 0 0
100 0 5 0 -12.860455397893801 -14.743739446693548 -23.679251015615684 0 0 0
126 0 5 0 -14.924386861906445 -14.755741249942158 -25.68271908029696 1 0 0
98 0 5 0 -10.846603572512093 -14.830128996452288 -25.72425064830444 0 0 0
389 0 5 0 -8.822555414221588 -12.757825702575275 -21.773792615867176 0 0 0
385 0 5 0 -12.801736649645385 -12.71269360014521 -21.749174390138972 0 0 0
159 0 5 0 -14.872865525280911 -12.785256421314445 -23.66209101965017 1 0 0
131 0 5 0 -10.862237607325723 -12.853720941360018 -23.725653613930916 0 0 0
129 0 5 0 -12.873262917931893 -12.702031456938252 -25.74297073482766 0 0 0
133 0 5 0 -8.81064372426139 -12.788142734282458 -25.65872795911589 0 0 0
386 0 5 0 -10.792048987574496 -10.761304221154926 -21.723563482014896 0 0 0
414 0 5 0 -14.865432872298353 -10.747144897215334 -21.75997560016174 1 0 0
132 0 5 0 -12.81384080960371 -10.759979330418698 -23.715170827136195 0 0 0
136 0 5 0 -8.785341036256993 -10.764476896561765 -23.70585133019524 0 0 0
130 0 5 0 -10.8315610921441 -10.785933326985896 -25.560187141125148 0 0 0
158 0 5 0 -14.900072361838395 -10.742909780831004 -25.703753511803775 1 0 0
421 0 5 0 -8.813967685240788 -8.699356748634658 -21.719928003429505 0 0 0
417 0 5 0 -12.810167481630273 -8.780928471133693 -21.711867664475484 0 0 0
191 0 5 0 -14.839012186891305 -8.770665509663637 -23.70099531486966 1 0 0
163 0 5 0 -10.802080699532201 -8.663467732425488 -23.698155742804445 0 0 0
161 0 5 0 -12.804441918653103 -8.743931884042532 -25.832450521597547 0 0 0
165 0 5 0 -8.938339375917257 -8.706811463787657 -25.7510638781978 0 0 0
362 0 5 0 -2.8149365704307243 -14.711250906591177 -21.691786349477375 0 0 0
358 0 5 0 -6.758469253714755 -14.73007942491849 -21.77858870264771 0 0 0
108 0 5 0 -4.7594636928348795 -14.819257854704789 -23.701722474849493 0 0 0
112 0 5 0 -0.7808493042728429 -14.791350374750463 -23.678321975037175 0 0 0
106 0 5 0 -2.795351563150473 -14.70612314578341 -25.67675890764754 0 0 0
102 0 5 0 -6.770283720306391 -14.775081375439976 -25.68642273806137 0 0 0
397 0 5 0 -0.7809172518157103 -12.719319037383027 -21.701204445657645 0 0 0
393 0 5 0 -4.733029943613565 -12.729191023972207 -21.676658056889128 0 0 0
139 0 5 0 -2.804222269555116 -12.711593319842054 -23.67925199903353 0 0 0
135 0 5 0 -6.77149757371166 -12.727687443800983 -23.72657971483169 0 0 0
137 0 5 0 -4.822658310880317 -12.706818870069021 -25.744852649880624 0 0 0
141 0 5 0 -0.6386686994493753 -12.830116556122963 -25.642821964237736 0 0 0
394 0 5 0 -2.7587162146879316 -10.662436950323498 -21.69931535113895 0 0 0
140 0 5 0 -4.77437500544966 -10.720441544677767 -23.754668129873345 0 0 0
144 0 5 0 -0.7587541478115905 -10.746325292660165 -23.705469125605763 0 0 0
390 0 5 0 -6.752688181302421 -10.729894451146665 -21.655997546953802 0 0 0
134 0 5 0 -6.7675380279201285 -10.669236520399263 -25.73967747992749 0 0 0
138 0 5 0 -2.662817780222245 -10.7454718018471 -25.739252359683082 0 0 0
425 0 5 0 -4.821060845500744 -8.737301455157779 -21.703853699540822 0 0 0
429 0 5 0 -0.6720500027968346 -8.793851500870574 -21.74846619946889 0 0 0
171 0 5 0 -2.7511199733885343 -8.726296268048138 -23.660540151970025 0 0 0
167 0 5 0 -6.8858618965218135 -8.706823158849382 -23.776187080706176 0 0 0
169 0 5 0 -4.752097168177916 -8.69707765223058 -25.74089150078687 0 0 0
173 0 5 0 -0.6894994150849029 -8.654682924760314 -25.700456290252664 0 0 0
370 0 5 0 5.347642734939366 -14.786945458459243 -21.73663153909156 0 0 0
366 0 5 0 1.3185576309510447 -14.752691264820694 -21.69892817332683 0 0 0
116 0 5 0 3.4121845128984276 -14.78509929220649 -23.68263183492456 0 0 0
120 0 5 0 7.396646409568244 -14.815654545673738 -23.59808089208241 0 0 0
114 0 5 0 5.4095370582036955 -14.797213934096915 -25.626242728800566 0 0 0
110 0 5 0 1.358752294499631 -14.793658385396073 -25.709502278478674 0 0 0
401 0 5 0 3.3831589386456997 -12.734457705673075 -21.681949889632616 0 0 0
405 0 5 0 7.420335617097174 -12.796464630057436 -21.70037113504546 0 0 0
147 0 5 0 5.379501386715858 -12.776374469400377 -23.719602474186406 0 0 0
143 0 5 0 1.3413294138658869 -12.789206620754056 -23.65851441599468 0 0 0
149 0 5 0 7.436266337843729 -12.88438878428839 -25.54765055323504 0 0 0
145 0 5 0 3.2932257428439944 -12.842355882771983 -25.78393615556982 0 0 0
402 0 5 0 5.3953082714815785 -10.772201304996987 -21.687213142636757 0 0 0
398 0 5 0 1.365937092325858 -10.740281961389739 -21.742563799348886 0 0 0
152 0 5 0 7.408805992912979 -10.716931512780539 -23.640280672921577 0 0 0
148 0 5 0 3.3691099116413263 -10.806545420908428 -23.659227352797465 0 0 0
142 0 5 0 1.287300252344802 -10.7450440434175 -25.782473653011273 0 0 0
146 0 5 0 5.366749107627314 -10.915869951175129 -25.721060370751065 0 0 0
437 0 5 0 7.355133706521002 -8.698382369397 -21.71886414374704 0 0 0
433 0 5 0 3.3362461122215117 -8.680806255204029 -21.76750492738344 0 0 0
175 0 5 0 1.3112447466638062 -8.759086438003216 -23.72784159887797 0 0 0
179 0 5 0 5.371654988263356 -8.747676010930011 -23.684247447099345 0 0 0
177 0 5 0 3.4036843814863045 -8.795408912003138 -25.705212571098546 0 0 0
181 0 5 0 7.308172035362835 -8.771400375196837 -25.74638902147903 0 0 0
374 0 5 0 9.421637042125692 -14.839063369820165 -21.69454009107172 0 0 0
378 0 5 0 13.419557724887229 -14.81012270181161 -21.632745920468057 0 0 0
128 0 5 0 15.4312360760261 -14.802020831811864 -23.6054183381133 0 0 0
124 0 5 0 11.425490462348609 -14.844161549455135 -23.595817013305705 0 0 0
122 0 5 0 13.4079710190102 -14.801940548503591 -25.59954035553772 0 0 0
118 0 5 0 9.432235737607476 -14.92225288071671 -25.663473785681063 0 0 0
409 0 5 0 11.46011565531034 -12.781085722893152 -21.63615591124814 0 0 0
413 0 5 0 15.41879381266486 -12.788647515564445 -21.75516546655451 0 0 0
155 0 5 0 13.451821906663442 -12.741154726478973 -23.612253346661273 0 0 0
151 0 5 0 9.460606945105726 -12.803789231074678 -23.613699760723154 0 0 0
157 0 5 0 15.408354766587372 -12.80016530343811 -25.684151671408042 0 0 0
153 0 5 0 11.370114831924356 -12.709316748595027 -25.668731725632828 0 0 0
406 0 5 0 9.38044672689558 -10.748047542992522 -21.70344426786075 0 0 0
410 0 5 0 13.40938138650534 -10.700879381760172 -21.689082904210704 0 0 0
160 0 5 0 15.475399303929528 -10.784720075783236 -23.773444253201358 0 0 0
156 0 5 0 11.427370129383627 -10.759273524502946 -23.642223447355722 0 0 0
154 0 5 0 13.37949863553066 -10.77585333077709 -25.66471470033057 0 0 0
150 0 5 0 9.324905768409902 -10.709620428849478 -25.751047912902795 0 0 0
445 0 5 0 15.451003961638731 -8.781307882448937 -21.72454137546504 0 0 0
441 0 5 0 11.393601689536448 -8.699608743873995 -21.733698802990414 0 0 0
187 0 5 0 13.428214512413131 -8.769171107146734 -23.66598714831141 0 0 0
183 0 5 0 9.406552242302485 -8.709746069739358 -23.66438587221326 0 0 0
185 0 5 0 11.447840326466013 -8.704537193867786 -25.63814554888754 0 0 0
189 0 5 0 15.470873391049027 -8.702703655704843 -25.676683355571708 0 0 0
446 0 5 0 -14.755781915935872 -6.729387588234581 -21.751787275204993 1 0 0
418 0 5 0 -10.807030478091994 -6.675042458599994 -21.652982390479004 0 0 0
164 0 5 0 -12.8020779373059 -6.716609269172491 -23.639671565502738 0 0 0
168 0 5 0 -8.884483385524351 -6.686250381590921 -23.773856382206755 0 0 0
162 0 5 0 -10.902812121298293 -6.580730484302782 -25.728713374998275 0 0 0
190 0 5 0 -14.815998482584073 -6.6930181895016005 -25.738648000702835 1 0 0
449 0 5 0 -12.76746501168611 -4.662065929998949 -21.693132827239765 0 0 0
453 0 5 0 -8.871421313097834 -4.678413429086419 -21.819079147891692 0 0 0
223 0 5 0 -14.835888715205131 -4.719087789460503 -23.700264005163007 1 0 0
195 0 5 0 -10.781971578351156 -4.623119263922256 -23.756679326908255 0 0 0
197 0 5 0 -8.743375682806997 -4.684366666119236 -25.7295431217451 0 0 0
193 0 5 0 -12.878235428952639 -4.635936667565146 -25.723530331565737 0 0 0
450 0 5 0 -10.746408490554439 -2.6000285058712533 -21.727674735180607 0 0 0
478 0 5 0 -14.775701321639755 -2.7045289033017474 -21.702582525646623 1 0 0
200 0 5 0 -8.733379999795675 -2.619543311078001 -23.786834125631994 0 0 0
196 0 5 0 -12.76287044250831 -2.687576337727847 -23.70483030920343 0 0 0
194 0 5 0 -10.742533265542084 -2.6768511716717107 -25.738568109866435 0 0 0
222 0 5 0 -14.899126012261336 -2.651841828154154 -25.632631755479878 1 0 0
481 0 5 0 -12.843130283485722 -0.6426395406761505 -21.738608222013333 0 0 0
485 0 5 0 -8.755693698343704 -0.6815987817675857 -21.785017318342916 0 0 0
227 0 5 0 -10.766169326899034 -0.6080029549686464 -23.72708978933742 0 0 0
255 0 5 0 -14.865574336989674 -0.6696516708534261 -23.688444183381172 1 0 0
229 0 5 0 -8.754347589971955 -0.6460920841789165 -25.84826433045548 0 0 0
225 0 5 0 -12.826457453130171 -0.7098033303207254 -25.803665454808986 0 0 0
422 0 5 0 -6.846648237244636 -6.7094406509315405 -21.767831296935633 0 0 0
426 0 5 0 -2.7248376689893 -6.745019399227052 -21.687982098190524 0 0 0
176 0 5 0 -0.687910996362904 -6.761995478073281 -23.692300433929127 0 0 0
172 0 5 0 -4.718334388533283 -6.7836218517328275 -23.640754891443148 0 0 0
166 0 5 0 -6.783987093164605 -6.758471359521838 -25.84292006630469 0 0 0
170 0 5 0 -2.7759830605517246 -6.766902183306782 -25.711005755433234 0 0 0
461 0 5 0 -0.7234787862201248 -4.767524359182445 -21.7473255130191 0 0 0
457 0 5 0 -4.78993436707756 -4.740533070140785 -21.787281004251618 0 0 0
203 0 5 0 -2.701446338376706 -4.767993106322326 -23.650095917665514 0 0 0
199 0 5 0 -6.865944195280132 -4.731448765973312 -23.740725151047243 0 0 0
205 0 5 0 -0.683430181542886 -4.743715760998187 -25.67935122291817 0 0 0
201 0 5 0 -4.7763475822473485 -4.849453084413191 -25.692682472177694 0 0 0
454 0 5 0 -6.762651729735789 -2.668827556137224 -21.77562182607169 0 0 0
458 0 5 0 -2.7137829795345496 -2.71705661606059 -21.74922448031726 0 0 0
204 0 5 0 -4.703659672568469 -2.735484186034236 -23.72259151003092 0 0 0
208 0 5 0 -0.6618685099522824 -2.68587714257021 -23.70424567443995 0 0 0
202 0 5 0 -2.715125694360027 -2.7938545304007976 -25.650105631675558 0 0 0
198 0 5 0 -6.747800788731263 -2.7279351016076907 -25.76138303960014 0 0 0
493 0 5 0 -0.7190486124039216 -0.6661919549031009 -21.749490734586967 0 0 0
489 0 5 0 -4.731973029068084 -0.7068037463839977 -21.748614984227366 0 0 0
231 0 5 0 -6.773434382454978 -0.6092517059933508 -23.703931589355577 0 0 0
235 0 5 0 -2.730342163216899 -0.7947973756247274 -23.72781862075785 0 0 0
233 0 5 0 -4.702483977854286 -0.757466031829926 -25.76823799631478 0 0 0
237 0 5 0 -0.7055773040715079 -0.690572548319032 -25.744309500132868 0 0 0
430 0 5 0 1.284716086322514 -6.677161586252602 -21.717932430758058 0 0 0
434 0 5 0 5.358604072708518 -6.711262167396585 -21.761473860679228 0 0 0
184 0 5 0 7.385060609102985 -6.75337960821114 -23.738461477393543 0 0 0
180 0 5 0 3.3282910830762913 -6.734578507440732 -23.703495832037312 0 0 0
178 0 5 0 5.269594210043271 -6.648803363250079 -25.747858691460827 0 0 0
174 0 5 0 1.3546041672908622 -6.69725512109449 -25.682362068673388 0 0 0
469 0 5 0 7.341342756478438 -4.7507133513812585 -21.79017268227105 0 0 0
465 0 5 0 3.4100187902418204 -4.652601412268389 -21.710108521730845 0 0 0
207 0 5 0 1.379611893456101 -4.738814499416069 -23.680428112910075 0 0 0
211 0 5 0 5.4049803797731055 -4.643927304391333 -23.70555842343197 0 0 0
209 0 5 0 3.3802873005485385 -4.629248261335566 -25.66704721433635 0 0 0
213 0 5 0 7.414148695804508 -4.7736609071821094 -25.774093681975163 0 0 0
466 0 5 0 5.376317936029376 -2.6542032876677006 -21.78190704454431 0 0 0
212 0 5 0 3.2515341275810914 -2.557107963453957 -23.691642634195933 0 0 0
216 0 5 0 7.429144464869405 -2.6413509667900184 -23.689027511935727 0 0 0
462 0 5 0 1.2538018642346787 -2.6792352422620005 -21.71311361802551 0 0 0
206 0 5 0 1.2587710838866546 -2.597960501709736 -25.758831148005584 0 0 0
210 0 5 0 5.3373280778582375 -2.664553275926917 -25.63495636201488 0 0 0
501 0 5 0 7.352837512392021 -0.5744578890021907 -21.730974086775408 0 0 0
497 0 5 0 3.3470968441603572 -0.637190749883649 -21.745338674024307 0 0 0
243 0 5 0 5.384696845780312 -0.6010145932455475 -23.663858071538886 0 0 0
239 0 5 0 1.2942708728620242 -0.5905590566709017 -23.71433878661905 0 0 0
245 0 5 0 7.326431848176067 -0.6642383880742069 -25.67421199876308 0 0 0
241 0 5 0 3.3081203911818102 -0.6459401609476294 -25.749541361816963 0 0 0
438 0 5 0 9.385256777636368 -6.740137778915343 -21.680776720606648 0 0 0
442 0 5 0 13.48259313448098 -6.700221012807846 -21.75191187794123 0 0 0
192 0 5 0 15.491275296521263 -6.713098781975273 -23.714083171057336 0 0 0
188 0 5 0 11.440158040179005 -6.744394690444113 -23.67844697572499 0 0 0
186 0 5 0 13.434181376721252 -6.677973933360713 -25.719109265828614 0 0 0
182 0 5 0 9.458654149773853 -6.715603317352471 -25.676973638504528 0 0 0
477 0 5 0 15.485945783078094 -4.650200618568764 -21.708060987506034 0 0 0
473 0 5 0 11.39150185684618 -4.714134356785486 -21.766566709821348 0 0 0
219 0 5 0 13.440297395122649 -4.656853699649385 -23.655726025204384 0 0 0
215 0 5 0 9.39184009586649 -4.7514709289179065 -23.720375114443225 0 0 0
221 0 5 0 15.478898960773568 -4.745524378205996 -25.7021317847433 0 0 0
217 0 5 0 11.386525238259694 -4.662706529425565 -25.619821842942528 0 0 0
470 0 5 0 9.395245133853148 -2.717195919099057 -21.757164169410096 0 0 0
224 0 5 0 15.492361170466326 -2.739913871375208 -23.608546033709377 0 0 0
474 0 5 0 13.434541853791828 -2.598745009533244 -21.71432430349041 0 0 0
220 0 5 0 11.440179802072622 -2.711529794022669 -23.634852187652825 0 0 0
218 0 5 0 13.424798380515211 -2.6974925965070833 -25.72943502992288 0 0 0
214 0 5 0 9.37906318734783 -2.6277435771241238 -25.620089338489354 0 0 0
509 0 5 0 15.432813718699292 -0.6933826946852933 -21.706547820057157 0 0 0
505 0 5 0 11.425437281996734 -0.6887390766727847 -21.6619634318193 0 0 0
251 0 5 0 13.422620762236251 -0.6788852125591841 -23.721865631868575 0 0 0
247 0 5 0 9.378257305913547 -0.5976341831091251 -23.654896671448284 0 0 0
253 0 5 0 15.384561049923228 -0.6405535877409115 -25.725296606089717 0 0 0
249 0 5 0 11.477983659388391 -0.6536673209442824 -25.579808978068858 0 0 0
482 0 5 0 -10.774777614717785 1.3269937742392814 -21.7249814023999 0 0 0
510 0 5 0 -14.82762852203729 1.2918608607060713 -21.70345390798166 1 0 0
232 0 5 0 -8.72153091952355 1.3446594522305653 -23.72452392523522 0 0 0
228 0 5 0 -12.867936067080532 1.3717492363737127 -23.766911782254798 0 0 0
226 0 5 0 -10.813042194220719 1.3227633511605967 -25.6657280813004 0 0 0
254 0 5 0 -14.852455228006548 1.4043246075541065 -25.901985811675196 1 0 0
257 0 5 0 -12.786897679444339 3.324353803334679 -21.760334168852484 0 -1 0
261 0 5 0 -8.806026757402254 3.3510474474161462 -21.799935862163476 0 -1 0
31 0 5 0 -14.797990940002505 3.360256755603849 -23.70767004728361 1 -1 0
3 0 5 0 -10.827326197088956 3.378844840994475 -23.75633019499648 0 -1 0
5 0 5 0 -8.785820286989503 3.319600518145236 -25.652007494980605 0 -1 0
1 0 5 0 -12.817654565372466 3.359174254366896 -25.901625016942575 0 -1 0
258 0 5 0 -10.828548413428184 5.412566458740384 -21.773249978827224 0 -1 0
286 0 5 0 -14.773344064989814 5.355837639207743 -21.7370076641692 1 -1 0
8 0 5 0 -8.804236591646351 5.439970773906097 -23.739533369583533 0 -1 0
4 0 5 0 -12.763787436558975 5.302170011594431 -23.79686731919915 0 -1 0
2 0 5 0 -10.771883457023451 5.410389261125557 -25.774990382711476 0 -1 0
30 0 5 0 -14.84670060842006 5.338239151781121 -25.718051590985603 1 -1 0
293 0 5 0 -8.775830171746572 7.366342752186032 -21.721404314784746 0 -1 0
289 0 5 0 -12.842907809501478 7.409780130533041 -21.7797007476639 0 -1 0
35 0 5 0 -10.804484205765993 7.373921204060686 -23.718478698818178 0 -1 0
63 0 5 0 -14.812857185434671 7.417398443414372 -23.74734161549334 1 -1 0
37 0 5 0 -8.767753831998265 7.407923934852921 -25.670323257340034 0 -1 0
33 0 5 0 -12.753092325113718 7.417400704225623 -25.677722944982513 0 -1 0
486 0 5 0 -6.707882058124622 1.3691783131432174 -21.769708434505873 0 0 0
490 0 5 0 -2.68876305068291 1.3808168149849174 -21.75936203521722 0 0 0
236 0 5 0 -4.601853493848778 1.312598072155056 -23.739662136077918 0 0 0
240 0 5 0 -0.7431983103347568 1.4140457540408602 -23.734169697803 0 0 0
230 0 5 0 -6.6932015671721645 1.3119741704094483 -25.68692506975942 0 0 0
234 0 5 0 -2.705974934305121 1.2924277450227415 -25.712457702736078 0 0 0
265 0 5 0 -4.702354850903567 3.33882385249498 -21.75785698302106 0 -1 0
269 0 5 0 -0.7520692386873811 3.4869635726701786 -21.786131868730074 0 -1 0
11 0 5 0 -2.7480646562447024 3.3800661226347337 -23.773332913672085 0 -1 0
7 0 5 0 -6.715479973752533 3.336033947429135 -23.69984920838382 0 -1 0
13 0 5 0 -0.7437515822729376 3.4175337007016666 -25.74530637200909 0 -1 0
9 0 5 0 -4.771504218368761 3.395722864776504 -25.70998181675083 0 -1 0
262 0 5 0 -6.782649194929338 5.382920114280543 -21.776476150795805 0 -1 0
266 0 5 0 -2.770592009522447 5.3815017853998866 -21.752264641497334 0 -1 0
16 0 5 0 -0.7448566066834589 5.409879953019063 -23.725958776508385 0 -1 0
12 0 5 0 -4.713864518973986 5.402352322090906 -23.811395869108594 0 -1 0
10 0 5 0 -2.7195330491351988 5.440864678126049 -25.815667144509447 0 -1 0
6 0 5 0 -6.791519096885111 5.361780493445234 -25.675048813543174 0 -1 0
297 0 5 0 -4.818620711784077 7.349523962761409 -21.685119939399698 0 -1 0
301 0 5 0 -0.7002902948608488 7.407308019380894 -21.785318406043594 0 -1 0
43 0 5 0 -2.7882200060467213 7.442114549168719 -23.711851357250875 0 -1 0
39 0 5 0 -6.686442143483092 7.405730087927561 -23.690943298179775 0 -1 0
41 0 5 0 -4.796556375110081 7.515594987622429 -25.743571749711396 0 -1 0
45 0 5 0 -0.6477749251846951 7.420080816346442 -25.69102215671508 0 -1 0
498 0 5 0 5.3604243737160004 1.4250640434621435 -21.726127784735258 0 0 0
494 0 5 0 1.194794380262169 1.3514618818493283 -21.73562105206291 0 0 0
244 0 5 0 3.3275155345796708 1.4255133003414788 -23.704578364588674 0 0 0
248 0 5 0 7.385720992291866 1.4320354635684769 -23.76491478885463 0 0 0
238 0 5 0 1.2817812688531318 1.3287365289542314 -25.833089882078838 0 0 0
242 0 5 0 5.407155083676436 1.429854086274149 -25.725887859145594 0 0 0
273 0 5 0 3.274230061162211 3.3990173556918295 -21.711662698697932 0 -1 0
277 0 5 0 7.3053112718981374 3.5018331363578312 -21.78637750240416 0 -1 0
19 0 5 0 5.302311760913675 3.4700491449469846 -23.674915562075206 0 -1 0
15 0 5 0 1.3083914059894481 3.397291529011984 -23.777526605386917 0 -1 0
17 0 5 0 3.314321605172362 3.2730114791697873 -25.762583511800283 0 -1 0
21 0 5 0 7.350963427719919 3.474193769050977 -25.755850428854796 0 -1 0
274 0 5 0 5.3289167914438815 5.480229273273637 -21.762300856399204 0 -1 0
20 0 5 0 3.350846209695921 5.399422236600181 -23.691846817092028 0 -1 0
270 0 5 0 1.2810229692354047 5.403601687069696 -21.82043424553306 0 -1 0
24 0 5 0 7.450888650090125 5.489607868232354 -23.746456632499267 0 -1 0
14 0 5 0 1.3802204701859113 5.397158761158817 -25.789239456820503 0 -1 0
18 0 5 0 5.245687039393365 5.376317540653968 -25.707969744439435 0 -1 0
309 0 5 0 7.418674584113083 7.412737508360006 -21.70268462866728 0 -1 0
305 0 5 0 3.357630319294542 7.413093969312168 -21.74160420904861 0 -1 0
51 0 5 0 5.388908270478768 7.426837710861412 -23.706583676180273 0 -1 0
47 0 5 0 1.316400358891222 7.371414621089068 -23.717808235099778 0 -1 0
49 0 5 0 3.384069699980483 7.440028662924008 -25.733793780669487 0 -1 0
53 0 5 0 7.399523187019471 7.482128507390266 -25.65894953592538 0 -1 0
502 0 5 0 9.364128384601955 1.4922946274672777 -21.724387067094113 0 0 0
506 0 5 0 13.440514350771593 1.337157019594351 -21.738015341071886 0 0 0
256 0 5 0 15.448376015073865 1.3694551730911344 -23.665184890015897 0 0 0
252 0 5 0 11.460099948053859 1.3863827708270058 -23.685413748530213 0 0 0
246 0 5 0 9.416213455108853 1.4091619062619634 -25.687511859270394 0 0 0
250 0 5 0 13.467544616411729 1.4552895909056838 -25.656228618755595 0 0 0
281 0 5 0 11.452441131879395 3.3988817709390373 -21.73203949142793 0 -1 0
285 0 5 0 15.474665785455471 3.4356616486478297 -21.76600865407978 0 -1 0
27 0 5 0 13.450961408247274 3.433891686034098 -23.666608290707142 0 -1 0
23 0 5 0 9.40280045283862 3.4150430990917604 -23.741478234122425 0 -1 0
25 0 5 0 11.428445679540653 3.465522277274025 -25.65230107133451 0 -1 0
29 0 5 0 15.491911632711718 3.368108119096013 -25.779865490637714 0 -1 0
278 0 5 0 9.453467488882056 5.434740353937369 -21.710258109648645 0 -1 0
282 0 5 0 13.512319416936272 5.408246304272068 -21.75454926488948 0 -1 0
28 0 5 0 11.448085620721153 5.463745928211407 -23.714188476665075 0 -1 0
32 0 5 0 15.496378527856455 5.358239583916608 -23.76256138895073 0 -1 0
26 0 5 0 13.49241301602325 5.377829197437033 -25.675736884657894 0 -1 0
22 0 5 0 9.414044498025094 5.445917212255872 -25.715320148580297 0 -1 0
317 0 5 0 15.56270756519158 7.404165999380437 -21.756718308150507 0 -1 0
313 0 5 0 11.467040428680638 7.487699285662221 -21.707515383046033 0 -1 0
55 0 5 0 9.398025523357612 7.509285379963531 -23.631978135875453 0 -1 0
59 0 5 0 13.540657435465214 7.470781651488832 -23.73539540968803 0 -1 0
61 0 5 0 15.4831269827283 7.4115549819912845 -25.716789838529955 0 -1 0
57 0 5 0 11.529354665857598 7.465441893369591 -25.778165130261186 0 -1 0
353 0 5 0 -12.794761564738021 15.539648617094004 -21.73335126558235 0 -1 0
357 0 5 0 -8.82313274284957 15.505817049853443 -21.763782502563497 0 -1 0
99 0 5 0 -10.82298979693956 15.477442128461266 -23.65514184893104 0 -1 0
127 0 5 0 -14.830483865024977 15.531700702918116 -23.582016814915658 1 -1 0
97 0 5 0 -12.818961664756968 15.555697293533791 -25.635386541778477 0 -1 0
101 0 5 0 -8.854231064565917 15.555009640491342 -25.777457884557105 0 -1 0
322 0 5 0 -10.812353891065777 13.465148293407601 -21.726173348964974 0 -1 0
350 0 5 0 -14.74649171987242 13.460841942614023 -21.748288570476785 1 -1 0
72 0 5 0 -8.78384262590277 13.419449473523585 -23.67348545330171 0 -1 0
68 0 5 0 -12.846050115166586 13.469093294306079 -23.712915870749022 0 -1 0
66 0 5 0 -10.847463047534177 13.442064729158004 -25.72885307514083 0 -1 0
94 0 5 0 -14.826049393129995 13.542915561747773 -25.751842893614164 1 -1 0
325 0 5 0 -8.803580930739868 11.451051315552993 -21.681221572917188 0 -1 0
321 0 5 0 -12.81282153606281 11.440785494614817 -21.718452842781332 0 -1 0
67 0 5 0 -10.851368966209018 11.44507683804655 -23.72657432832289 0 -1 0
95 0 5 0 -14.829931718566815 11.460123979917636 -23.755066986962323 1 -1 0
69 0 5 0 -8.808913668254595 11.501127641209926 -25.709280936622353 0 -1 0
65 0 5 0 -12.811717516716442 11.505751842274144 -25.81264130995468 0 -1 0
290 0 5 0 -10.795571564383065 9.376531078232635 -21.725945717028615 0 -1 0
318 0 5 0 -14.790140653996414 9.480019311712212 -21.77800328506589 1 -1 0
40 0 5 0 -8.769007907495862 9.484114884903947 -23.678094217348445 0 -1 0
36 0 5 0 -12.852088127657495 9.393434533874133 -23.74863150811443 0 -1 0
34 0 5 0 -10.786208510508654 9.379923242639464 -25.71974673425824 0 -1 0
62 0 5 0 -14.879972909115244 9.411552723193616 -25.81844227032737 1 -1 0
365 0 5 0 -0.7704994855340662 15.533258737036569 -21.68155451057303 0 -1 0
361 0 5 0 -4.737107685507146 15.531650072146505 -21.768969608124 0 -1 0
107 0 5 0 -2.648965817973095 15.578391362109718 -23.73787193204298 0 -1 0
103 0 5 0 -6.775896784674881 15.548510955204788 -23.624961200740845 0 -1 0
105 0 5 0 -4.708951457640235 15.492380064220862 -25.619556086215127 0 -1 0
109 0 5 0 -0.6797988264188771 15.569709176039717 -25.80964550330605 0 -1 0
326 0 5 0 -6.774259685972229 13.507213223276109 -21.732197017834082 0 -1 0
330 0 5 0 -2.6579396363817844 13.457113382215953 -21.78765335471291 0 -1 0
76 0 5 0 -4.783910872569113 13.460283615873196 -23.72519634584717 0 -1 0
80 0 5 0 -0.6534990244683905 13.537772014073315 -23.706009031966317 0 -1 0
70 0 5 0 -6.898708027697115 13.563068636010682 -25.678241025353405 0 -1 0
74 0 5 0 -2.6684058338757017 13.482351018402785 -25.72746665437126 0 -1 0
329 0 5 0 -4.684728369014397 11.45580281568662 -21.660798312786973 0 -1 0
333 0 5 0 -0.6639846364450677 11.498052848254797 -21.768832608340514 0 -1 0
71 0 5 0 -6.7875568467682 11.445116361150932 -23.684963156129456 0 -1 0
75 0 5 0 -2.7425563315486547 11.476618568431963 -23.758170046980233 0 -1 0
77 0 5 0 -0.7009008868533826 11.507266479848274 -25.69020878971836 0 -1 0
73 0 5 0 -4.760341923862627 11.468382770806723 -25.699075517104905 0 -1 0
294 0 5 0 -6.76545262916727 9.400341716024577 -21.66374978841372 0 -1 0
298 0 5 0 -2.6999425677005546 9.433032595919656 -21.786111494933404 0 -1 0
48 0 5 0 -0.6795208710209456 9.40976923543102 -23.691766698798773 0 -1 0
44 0 5 0 -4.774540196409901 9.500876650595348 -23.697358688588363 0 -1 0
42 0 5 0 -2.790382445615765 9.427455102214289 -25.748233946281154 0 -1 0
38 0 5 0 -6.862290288300898 9.558391902305937 -25.7610974097999 0 -1 0
369 0 5 0 3.383839855124999 15.50358401914204 -21.67217559729562 0 -1 0
373 0 5 0 7.3368444120884675 15.447104424464206 -21.68914203242489 0 -1 0
115 0 5 0 5.3638729999131165 15.463993332419196 -23.68525066820498 0 -1 0
111 0 5 0 1.4049011565124223 15.61982810089762 -23.616392036611888 0 -1 0
113 0 5 0 3.4015266255006207 15.520314218111743 -25.6718865124835 0 -1 0
117 0 5 0 7.385547509384209 15.523322327943596 -25.665742713001283 0 -1 0
334 0 5 0 1.2852369945556281 13.55824169063178 -21.717095264107588 0 -1 0
338 0 5 0 5.323048736080979 13.488943698944054 -21.731726336175896 0 -1 0
88 0 5 0 7.34375617446361 13.418630593989727 -23.759513623959116 0 -1 0
84 0 5 0 3.353842023110948 13.471766492452687 -23.71360202132968 0 -1 0
78 0 5 0 1.3481644486995337 13.50737207768048 -25.720531557534517 0 -1 0
82 0 5 0 5.354389597858296 13.441669357969657 -25.8314393726453 0 -1 0
337 0 5 0 3.233302289357189 11.500731029769256 -21.70985617764453 0 -1 0
341 0 5 0 7.308927703027161 11.492269543808261 -21.72861127288659 0 -1 0
83 0 5 0 5.361207110591005 11.446855129519099 -23.747743052286243 0 -1 0
79 0 5 0 1.321532812757583 11.54462055028124 -23.74160523402973 0 -1 0
85 0 5 0 7.390490898004501 11.376712179149472 -25.802029769098457 0 -1 0
81 0 5 0 3.3212523554139466 11.539258296712312 -25.70149486455575 0 -1 0
306 0 5 0 5.279092041301803 9.477990577533399 -21.748452500875068 0 -1 0
302 0 5 0 1.321257662807075 9.385680261448135 -21.735576608565875 0 -1 0
56 0 5 0 7.335425061442433 9.460528210133447 -23.66429795322769 0 -1 0
52 0 5 0 3.382173146742708 9.501262294381569 -23.74874159360889 0 -1 0
50 0 5 0 5.343620016798207 9.480323058810711 -25.802284273285164 0 -1 0
46 0 5 0 1.2919671575536382 9.446184853283743 -25.66622265590251 0 -1 0
377 0 5 0 11.47697170168703 15.490484049650947 -21.66606148081793 0 -1 0
381 0 5 0 15.437561265877408 15.530897445020713 -21.64742942187207 0 -1 0
119 0 5 0 9.404542444278214 15.399666955968767 -23.6507964438687 0 -1 0
123 0 5 0 13.47158454862454 15.468407357947106 -23.683484736867 0 -1 0
121 0 5 0 11.496541481782064 15.470095259377004 -25.597846925529872 0 -1 0
125 0 5 0 15.470135734040536 15.488225075093963 -25.645822180133223 0 -1 0
92 0 5 0 11.395507059964686 13.481984923104642 -23.666961365703663 0 -1 0
342 0 5 0 9.404646972266471 13.44902832345529 -21.714239715819154 0 -1 0
346 0 5 0 13.507208389295421 13.462872247638334 -21.75864492107847 0 -1 0
96 0 5 0 15.540493040373633 13.459627769830245 -23.641324324257706 0 -1 0
86 0 5 0 9.398568895603097 13.440538434182017 -25.65536318131136 0 -1 0
90 0 5 0 13.53518688070083 13.486435908261718 -25.67161035303617 0 -1 0
345 0 5 0 11.383474069535735 11.544199635498844 -21.728036309544052 0 -1 0
349 0 5 0 15.52234671125728 11.452128472965903 -21.725433890384064 0 -1 0
87 0 5 0 9.370096636760659 11.426015177673849 -23.712228139333178 0 -1 0
91 0 5 0 13.46582663676539 11.468600806859012 -23.70681945026339 0 -1 0
89 0 5 0 11.536593330919942 11.524721131133818 -25.647752482469272 0 -1 0
93 0 5 0 15.46428793770297 11.536409396440215 -25.7130365795222 0 -1 0
310 0 5 0 9.344677499230558 9.488599526334827 -21.663218913082996 0 -1 0
314 0 5 0 13.496414494913761 9.450895564138676 -21.73838919702177 0 -1 0
60 0 5 0 11.42288042189784 9.465840895384785 -23.616553715928436 0 -1 0
64 0 5 0 15.463593209846518 9.48554466783093 -23.70525812412765 0 -1 0
54 0 5 0 9.505414869389279 9.453933472656852 -25.65597001208538 0 -1 0
58 0 5 0 13.469163947431165 9.460629371623897 -25.702235392162926 0 -1 0
360 0 5 0 -8.80048179854688 -14.813245416127767 -19.858041376787522 0 0 0
356 0 5 0 -12.767132287945836 -14.673151952826606 -19.805091752048952 0 0 0
387 0 5 0 -10.773498067314664 -12.727961544758182 -19.808716274773882 0 0 0
415 0 5 0 -14.79216355404234 -12.689572116112615 -19.79374124484684 1 0 0
388 0 5 0 -12.764363862112727 -10.665771447828153 -19.70613410202456 0 0 0
392 0 5 0 -8.752655429956603 -10.811689517074223 -19.74758090780576 0 0 0
562 0 5 0 -10.7956038796756 -14.837577237317644 -17.778799199956847 0 0 0
576 0 5 0 -14.841854641835825 -14.794581665065975 -17.81113353828978 1 0 0
577 0 5 0 -12.751149232190743 -12.695668750390432 -17.717272798050903 0 0 0
579 0 5 0 -8.778346500932706 -12.765196278225105 -17.78056946554047 0 0 0
592 0 5 0 -14.846066664400839 -10.697555672073014 -17.753842354184115 1 0 0
578 0 5 0 -10.809019884079092 -10.765502657379933 -17.782675481569306 0 0 0
419 0 5 0 -10.805648020983176 -8.730913244964624 -19.73276322106893 0 0 0
447 0 5 0 -14.874307287869497 -8.720733034122542 -19.7860937855549 1 0 0
593 0 5 0 -12.901821346343636 -8.726228758913994 -17.752432730988435 0 0 0
595 0 5 0 -8.813273279033107 -8.73003121107091 -17.747839638544043 0 0 0