LAMMPS data file via write_data, version 23 Jun 2022, timestep = 4000

1000 atoms
2 atom types
500 bonds
1 bond types

-20 20 xlo xhi
-20 20 ylo yhi
-20 20 zlo zhi

Masses

1 1
2 1

Pair Coeffs # lj/cut

1 1 1
2 0.5 3

Bond Coeffs # harmonic

1 1 1

Atoms # molecular

251 126 1 -16.059382451943183 -15.886250820014137 -19.645400392306396 0 0 0
872 436 2 -0.30703434889872583 -16.58726970257544 -19.332148478383196 0 0 0
871 436 1 0.30756133479976877 -17.234097012794187 -19.009900074567458 0 0 0
993 497 1 -5.402230085825343 -14.995475689307495 -19.09016883529436 0 0 0
823 412 1 -2.426056697174943 -14.69949102830681 -18.713590636675473 0 0 0
200 100 2 -12.833466477334383 -12.973882986884577 -19.403156337292938 0 0 0
199 100 1 -13.413792956325425 -12.690548994005713 -19.62318476815711 0 0 0
558 279 2 11.621615455013945 -11.571987319795246 -19.295188417615666 0 0 0
557 279 1 12.949602890988977 -11.95126940081116 -19.644536303796027 0 0 0
221 111 1 -13.120622889909342 -10.263077118503041 -19.084473673825855 0 0 0
9 5 1 5.1487728063388705 -10.357143538938478 -19.87605616344628 0 0 0
222 111 2 -14.045157137908328 -9.947665522063557 -18.97103349945688 0 0 0
36 18 2 -7.11731788182878 -7.545075187787774 -19.481515847850773 0 0 0
35 18 1 -5.94138862358525 -7.869332813907825 -19.277354471328827 0 0 0
816 408 2 13.97659353763575 -8.23950998804084 -18.982414372315596 0 0 0
815 408 1 15.009032943219374 -8.21091339158143 -19.030485586121525 0 0 0
547 274 1 -16.079203790787886 -5.8252773117843795 -18.881758274035757 0 0 0
124 62 2 12.826485306202235 -5.585040854874332 -18.723003268370277 0 0 0
923 462 1 -1.4269008592398027 -4.0329371263208476 -19.037327979780773 0 0 0
202 101 2 6.134968163799913 -4.1661947261164505 -18.73716965537799 0 0 0
201 101 1 6.121976572200809 -3.2741753995067344 -19.21716395465554 0 0 0
765 383 1 -16.88406638861935 -2.0409459438612325 -18.572583901067777 0 0 0
834 417 2 -6.502166898349458 -2.202860470986596 -19.603475049191143 0 0 0
833 417 1 -5.43617267946432 -1.7413755655448742 -19.536614665786583 0 0 0
126 63 2 6.691166275785872 0.940401223553749 -18.81058925955183 0 0 0
707 354 1 -11.520318304367443 1.7421312245518146 -19.610882252026848 0 0 0
708 354 2 -12.206073428772068 1.6151019630860426 -19.286100170660205 0 0 0
980 490 2 -6.2692561861780165 3.9643558228653575 -18.986303029321952 0 0 0
95 48 1 -15.808007424745167 5.322622037100609 -19.508332679732636 0 0 0
269 135 1 6.573267054368759 4.74877403009338 -19.34154026807509 0 0 0
270 135 2 6.825686818010813 5.483095483835299 19.981593517595183 0 0 -1
93 47 1 -16.2843306832251 6.568435639325892 -19.457886616038284 0 0 0
410 205 2 -16.688122418743646 8.287772379731058 -19.197881424667298 0 0 0
409 205 1 -15.689574407581127 8.042000836982567 -19.44422439239166 0 0 0
779 390 1 6.331395800280339 17.71972849984562 -19.198027621229368 0 0 0
780 390 2 6.1174903883020955 18.439993350428498 -19.633580264919303 0 0 0
422 211 2 17.103032620113368 18.0226492221742 -19.455424254594625 0 0 0
421 211 1 17.473201496477 17.65404548860561 -19.006902550782343 0 0 0
750 375 2 19.826253651456085 18.197552288512732 -19.674791734425945 -1 0 1
162 81 2 -14.644784793409825 19.17003835352317 -18.948444173440194 0 0 0
866 433 2 -6.390278757755115 18.704752043962458 -18.90519912313336 0 0 0
45 23 1 -19.341566804414853 -18.35240299050711 -18.082644266955846 0 0 0
80 40 2 -16.269916748958373 -17.51989577765457 -18.117789136212608 0 0 0
79 40 1 -16.267759551132322 -16.532369733973223 -17.765244634905365 0 0 0
148 74 2 6.27264613613421 -15.867328086477908 -18.6769504261375 0 0 0
252 126 2 -14.433579354563957 -14.776634268711053 -18.473303730947613 0 0 0
824 412 2 -3.537235442504948 -14.711758292606739 -18.647172941298745 0 0 0
71 36 1 2.3340651130896797 -15.837945082892373 -17.563003208275514 0 0 0
72 36 2 1.8974301769969482 -15.374917471016495 -17.31894503031002 0 0 0
147 74 1 6.232000404556024 -14.940512669988944 -18.10780865621815 0 0 0
902 451 2 -5.854647028916198 -12.239168405418665 -17.19370475522428 0 0 0
771 386 1 16.510887216824955 -12.321941493723294 -17.15524150014528 0 0 0
560 280 2 8.006688319747198 -10.970444136380712 -17.671123222830982 0 0 0
100 50 2 -5.115618700117813 -9.00120494541627 -17.70114695222335 0 0 0
651 326 1 3.786595349846554 -9.063524452220948 -17.449859646407933 0 0 0
99 50 1 -4.8932315034308855 -8.353879586036514 -18.248668769081657 0 0 0
123 62 1 12.323892882687451 -5.503278159186743 -17.616131985695624 0 0 0
924 462 2 -2.3968131178841388 -4.184206395220454 -18.14552523062085 0 0 0
640 320 2 18.991469884232124 -3.553238303575756 -17.26426023077354 0 0 0
766 383 2 -16.522048035467673 -2.4125579418748577 -18.10829450642155 0 0 0
934 467 2 -0.862769348795032 -1.542624176835811 -17.986330965441997 0 0 0
933 467 1 -0.9085863458403459 -1.1044462520896585 -17.947406437578675 0 0 0
125 63 1 7.7326479923297695 1.3640868097663474 -18.052589064463017 0 0 0
979 490 1 -5.498436923440172 3.240309679767684 -18.66081408422589 0 0 0
217 109 1 12.464463467352042 4.045005723417791 -17.393115718791133 0 0 0
218 109 2 12.15726820446317 3.653311725282272 -17.976367509267735 0 0 0
627 314 1 14.739724226196081 3.435246822014779 -17.43398480368639 0 0 0
550 275 2 5.095401444409993 4.3760754730707 -18.13872048231705 0 0 0
549 275 1 6.452338684731935 4.607448605592981 -17.803731949982943 0 0 0
223 112 1 -17.41620469069704 12.494384548958585 -17.38408582859238 0 0 0
224 112 2 -17.98844609616437 12.36374311425445 -17.66663141507917 0 0 0
579 290 1 -7.017783141057314 12.429397364157253 -18.578941624143543 0 0 0
508 254 2 2.2259659884326637 11.880988634986341 -17.80846348408154 0 0 0
580 290 2 -6.938355131391047 12.789312936767946 -17.9092380986617 0 0 0
865 433 1 -7.109739699688434 19.81715116772517 -18.404719827665623 0 0 0
960 480 2 4.703426129624686 -19.93335035684996 -15.821420007239093 0 0 0
798 399 2 13.510615521778536 -18.96752012813339 -16.96819938316953 0 0 0
19 10 1 16.526975033348034 -19.878708651406228 -16.308151710740376 0 0 0
460 230 2 -19.515683846732507 -16.178673951191936 -15.836493448949598 0 0 0
459 230 1 -19.843452453523103 -15.827870534781196 -16.92813569503309 0 0 0
14 7 2 -16.579608241070662 -15.579445640200795 -15.83391546102536 0 0 0
13 7 1 -15.930797193700695 -15.368566596503488 -15.90168118401896 0 0 0
901 451 1 -4.786960710799857 -12.610819159115218 -17.160732890981972 0 0 0
262 131 2 10.060700177338973 -12.165010868210711 -16.276455902841278 0 0 0
772 386 2 15.357017913652074 -12.618590196936095 -16.72127242549449 0 0 0
652 326 2 2.733423570222103 -9.469520903279808 -17.12584550325388 0 0 0
559 280 1 8.032533815505204 -9.927323762503125 -17.18874591371241 0 0 0
578 289 2 6.379269691797658 -7.291346673208159 -16.128050749337294 0 0 0
648 324 2 14.062404995579238 -7.65643823865974 -16.508492456929286 0 0 0
647 324 1 14.957491189928481 -7.804906912843521 -16.560095047074253 0 0 0
577 289 1 7.493559097900301 -7.099412703311861 -16.191863040983815 0 0 0
745 373 1 12.220941415575444 -7.132213837123019 -16.036482673822395 0 0 0
548 274 2 -15.329299985746214 -5.020707080814204 -16.41568018596834 0 0 0
720 360 2 3.7928128472189466 -3.0830812058556414 -16.85259408347784 0 0 0
719 360 1 4.874965459407685 -2.938713612305005 -16.790543442779256 0 0 0
143 72 1 7.9572153668417425 -3.1898342915826827 -16.617620401180652 0 0 0
144 72 2 7.831300735785091 -3.125336859306386 -15.883057979199238 0 0 0
639 320 1 19.492860805159186 -2.942448144674989 -17.05524173845173 0 0 0
983 492 1 -15.85062746723658 0.725453510822849 -16.624465356479188 0 0 0
984 492 2 -15.357665301454736 0.7632351482095512 -15.994206336379756 0 0 0
104 52 2 7.469986227911164 0.7097193354136468 -16.292264012175934 0 0 0
397 199 1 10.58130388838983 4.190293567028641 -16.730736467229974 0 0 0
628 314 2 15.743836853751187 3.712305241281258 -16.58870477827612 0 0 0
398 199 2 10.675385055172468 4.966293982358507 -16.253369665195667 0 0 0
94 47 2 -17.830313996645636 7.770010391693229 -16.992305969481073 0 0 0
888 444 2 -10.666238795018451 9.608941523172788 -15.837051244239825 0 0 0
916 458 2 -15.52883528483356 11.229302054245329 -16.355883638769466 0 0 0
915 458 1 -14.252318507030116 11.280237136372575 -16.676627206773112 0 0 0
887 444 1 -10.158566414620788 10.249237932136838 -15.75327229730415 0 0 0
515 258 1 -9.348953591402596 12.897410366222775 -16.08236989199285 0 0 0
516 258 2 -9.059047052989767 13.68944731643165 -16.53025702570459 0 0 0
507 254 1 1.9347159417448017 12.95902882199136 -16.29609707027154 0 0 0
433 217 1 -0.30202806704201635 18.510284207711727 -15.82757391450746 0 0 0
20 10 2 16.029832295508772 19.555164581852544 -16.438259432474915 0 -1 0
959 480 1 4.88803865423258 -19.19215583553522 -15.364092392214074 0 0 0
797 399 1 14.306938059266631 -19.7636045404843 -15.570013598761397 0 0 0
859 430 1 -9.686034802439643 -16.411883922038914 -15.23915029450296 0 0 0
860 430 2 -9.07398119396973 -16.79608028041757 -14.805103810487935 0 0 0
506 253 2 4.458226709691158 -13.356752045846743 -14.651999815418579 0 0 0
505 253 1 5.687919039178571 -13.59509335551053 -14.643104271437707 0 0 0
261 131 1 9.680150367054356 -11.762128940495716 -15.220308377058142 0 0 0
492 246 2 -17.97014672480516 -11.295610688291413 -14.395671094490673 0 0 0
968 484 2 -13.994914758355408 -11.121144983549952 -14.400108502138115 0 0 0
778 389 2 15.151674393801464 -11.148659120782686 -14.692956712573881 0 0 0
733 367 1 -10.792843468908519 -9.738003129802935 -14.98547650213473 0 0 0
734 367 2 -11.50199043863238 -9.313092372338383 -14.880049833839474 0 0 0
106 53 2 8.7703299268349 -7.662023448444913 -15.132357624289943 0 0 0
105 53 1 10.124622733093256 -8.322765579595165 -15.21490275339677 0 0 0
226 113 2 -18.378403214270616 -5.777154599044993 -14.89960528701846 0 0 0
225 113 1 -17.09616943925831 -5.8238381706575595 -14.709716225618067 0 0 0
932 466 2 15.066298656927165 -5.212848455211242 -15.570551247131078 0 0 0
931 466 1 15.95099591454097 -5.10635924475318 -15.701732799272602 0 0 0
206 103 2 -13.479911830016466 -2.2728976696695 -15.689182084579128 0 0 0
205 103 1 -12.632516658158075 -2.5865893248150273 -15.662889797863372 0 0 0
103 52 1 7.041141418113432 0.3647163003430055 -15.63975649572347 0 0 0
575 288 1 6.624517754453828 2.369116311446334 -15.48206974078956 0 0 0
576 288 2 6.623128305505761 3.243461313961588 -15.498287999190117 0 0 0
936 468 2 -19.276928576581582 4.63558775721811 -14.866411923431606 0 0 0
715 358 1 -16.539109399330624 5.3293742390652525 -15.308265331850002 0 0 0
716 358 2 -16.779416154068336 6.146111684130634 -15.035129774022279 0 0 0
311 156 1 10.02208582999349 5.718870698431108 -14.380635153187681 0 0 0
485 243 1 -2.3496095123147027 11.501796984648774 -14.559114943579678 0 0 0
486 243 2 -3.703124247928843 11.909218675713177 -14.686164322489555 0 0 0
830 415 2 1.5536843147459516 12.268333995923227 -14.33931764307482 0 0 0
969 485 1 -7.098839587271542 14.860806208783746 -14.567935600703303 0 0 0
39 20 1 14.343824816035523 18.424370520254875 -14.343749920591614 0 0 0
40 20 2 14.273844717012958 17.90529445416999 -15.140143105069507 0 0 0
882 441 2 -12.405252200404147 19.396757815142507 -15.345054375842984 0 0 0
881 441 1 -11.282235038196209 19.12808740457139 -15.275051083070434 0 0 0
434 217 2 -1.6157041220918633 18.849452987196578 -15.396072404027088 0 0 0
856 428 2 -14.806580000389747 -15.443211467873942 -13.650266987402217 0 0 0
855 428 1 -15.296313724627502 -14.166645329824242 -14.024997500813825 0 0 0
930 465 2 -2.828031809010108 -13.314106456355471 -12.994156381538621 0 0 0
491 246 1 -16.260522091243487 -12.393056366534553 -13.51474067142684 0 0 0
344 172 2 -5.3236005250828144 -12.28694618525963 -13.799839522681872 0 0 0
293 147 1 -0.6674571415182567 -11.658114235495642 -13.664832747160535 0 0 0
294 147 2 -0.882448803803123 -11.506548496411435 -14.087515496964578 0 0 0
967 484 1 -14.605403176493017 -11.005467097934671 -13.195690540577845 0 0 0
777 389 1 15.680675865122844 -11.33835212354829 -14.102160882651253 0 0 0
620 310 2 -4.493482538041521 -9.851364547808506 -13.257208483018948 0 0 0
746 373 2 10.899329560040417 -6.405448288725141 -13.941330919090776 0 0 0
679 340 1 6.474179876684211 -1.731954315087197 -13.999680186400036 0 0 0
956 478 2 -11.639227922616097 1.3619787747369674 -13.868807196557857 0 0 0
955 478 1 -11.126342421210957 0.9486204257744975 -13.395830560759867 0 0 0
612 306 2 9.364640577862309 2.234176110438508 -13.44308023735819 0 0 0
85 43 1 -18.087046806106883 3.888488343513275 -13.34599645913761 0 0 0
914 457 2 3.5658389027440682 3.3757208365982865 -13.901703173207055 0 0 0
913 457 1 4.3747369546801025 3.1003001858652928 -13.557808467292837 0 0 0
935 468 1 -18.705404132279902 4.558274279405736 -14.010424650972322 0 0 0
355 178 1 -16.248180463220752 5.570559245730282 -13.42777018212168 0 0 0
312 156 2 10.775662500927432 5.1276005389897525 -13.640179167872155 0 0 0
829 415 1 1.9435664644145532 12.305400555396517 -14.256221086680405 0 0 0
60 30 2 13.0671343337827 12.287923168677649 -13.454327030857462 0 0 0
59 30 1 12.414226184298268 13.364903068381762 -13.201800215213815 0 0 0
528 264 2 -12.20709787945115 15.336649818444352 -13.288878247548785 0 0 0
970 485 2 -7.115984013430064 14.591575060412252 -13.383964479024767 0 0 0
250 125 2 16.53454759117665 17.712023966936368 -13.227276160948541 0 0 0
230 115 2 -13.053805365663365 -17.188004567566285 -12.262054915798748 0 0 0
229 115 1 -12.580324279630451 -17.29037803530483 -12.323765321022828 0 0 0
501 251 1 12.823759463925587 -15.033477818388238 -12.111719245823755 0 0 0
56 28 2 19.946974024951846 -11.976276141978346 -11.965804438125861 0 0 0
323 162 1 -6.465456582026338 -12.345130287123325 -11.997362752706385 0 0 0
324 162 2 -6.798858822303278 -11.573537601040988 -11.46628022830319 0 0 0
343 172 1 -5.28760328129133 -12.23188757244103 -11.920503618462215 0 0 0
929 465 1 -2.4000251609149776 -12.713933467538657 -12.57396324513647 0 0 0
387 194 1 13.625982455670737 -10.849137422133625 -12.566890967537956 0 0 0
388 194 2 14.225089508978574 -11.281604572202111 -11.820973957582096 0 0 0
615 308 1 16.72645275502024 -10.535035271694195 -11.58148241056378 0 0 0
619 310 1 -4.146312744499483 -9.694603185460505 -12.678112729950508 0 0 0
44 22 2 -6.141775579669249 -8.076825128706579 -12.658897771713102 0 0 0
43 22 1 -5.283131021042576 -7.517504279424851 -12.026082177799502 0 0 0
799 400 1 -10.097061758471213 -4.958933255373836 -12.096712424341177 0 0 0
800 400 2 -10.83475550968877 -5.231394071662605 -12.579437604307998 0 0 0
66 33 2 12.245379811043875 -4.708770605179806 -12.382402765868695 0 0 0
176 88 2 -15.874421289231671 -3.6570534886024326 -11.684479918156104 0 0 0
175 88 1 -14.964378526260786 -4.052095152425196 -11.748858606979447 0 0 0
65 33 1 12.075587770273955 -3.871356228180874 -12.30116577673013 0 0 0
680 340 2 6.662676422550478 -2.0659696481818703 -12.642403423628092 0 0 0
801 401 1 -15.410904812052713 -1.031557496455373 -12.621482764656058 0 0 0
802 401 2 -14.869399385347405 -0.43026309983659783 -11.992078541451843 0 0 0
76 38 2 -12.40712722920369 -1.016133605245719 -11.771521234037372 0 0 0
75 38 1 -11.337222180467373 -0.836651867509351 -12.083361912345488 0 0 0
611 306 1 10.428282185362185 1.8336013796660193 -12.675309409706195 0 0 0
86 43 2 -17.735304240809203 3.7546588852385905 -12.341869559274523 0 0 0
836 418 2 5.254640944325149 3.7722549801810397 -11.366897333117699 0 0 0
840 420 2 18.51461197878955 4.09264126857772 -12.741965047354556 0 0 0
839 420 1 19.159503907487775 4.188540346638059 -12.197689200338996 0 0 0
278 139 2 1.317811239241278 5.184456257506869 -11.927952632669253 0 0 0
277 139 1 1.6723776515587019 4.677195068333614 -12.842759413371278 0 0 0
356 178 2 -17.158382847356357 6.237246483489301 -12.524431262467003 0 0 0
57 29 1 7.39848992683903 5.6585356678082235 -12.090521698812507 0 0 0
432 216 2 12.363027435452752 10.097495884469657 -11.994636256956564 0 0 0
527 264 1 -11.904882366262843 15.706240859808739 -12.142536427585142 0 0 0
212 106 2 15.683330399104754 15.557435771582332 -11.236654495859481 0 0 0
185 93 1 -18.516035137461007 18.017637558727305 -12.291941545832447 0 0 0
249 125 1 17.30330437317796 18.366775316430903 -12.218716127570156 0 0 0
186 93 2 -17.929445112916152 18.784260571198296 -12.3251800099736 0 0 0
926 463 2 16.205844781084608 -17.410950163146236 -10.747206204967176 0 0 0
686 343 2 -9.106464003391242 -16.707900698621017 -10.390812328082943 0 0 0
925 463 1 16.721984726634467 -16.589397596345915 -11.293423952939118 0 0 0
843 422 1 19.792491759676945 -15.973947898311373 -10.639958856247153 0 0 0
844 422 2 19.56743829637766 -16.95637466670252 -11.106517639800298 0 0 0
502 251 2 12.266693636038182 -14.66949502568375 -11.434863559591335 0 0 0
296 148 2 18.417950782287402 -14.574827484871584 -10.95200129706323 0 0 0
295 148 1 17.050059770673098 -14.459233220215353 -10.378016145519485 0 0 0
504 252 2 4.3904553887171724 -11.979242805989715 -10.983605304543948 0 0 0
503 252 1 5.191655865576303 -11.740735656056097 -10.99416751508128 0 0 0
55 28 1 18.591259293221675 -11.412049792307734 -10.366448669963495 0 0 0
463 232 1 -10.258669594067612 -10.03279171285378 -10.720088097542948 0 0 0
464 232 2 -10.929557191884848 -9.46601349903301 -11.369455055671418 0 0 0
616 308 2 15.814955440472485 -9.063501116076578 -10.93850443788391 0 0 0
376 188 2 -13.83387732246035 -7.357756792612909 -10.22988161190026 0 0 0
455 228 1 7.0814492858444265 -5.677121547160726 -10.37611941347926 0 0 0
514 257 2 15.69410947715297 -4.337603325305717 -10.309976509912516 0 0 0
513 257 1 16.718067858519586 -4.152301508122449 -10.347032965829806 0 0 0
675 338 1 4.750437643683702 -2.8098045946224084 -10.097046793633965 0 0 0
280 140 2 -9.807537275424034 -0.14236449758576236 -11.128156194346362 0 0 0
279 140 1 -9.33305537929301 -0.42356798950098395 -11.113466690751581 0 0 0
582 291 2 -1.0466938104284014 3.8947893563400906 -10.055487699588728 0 0 0
835 418 1 5.65556441420356 4.437848005076605 -11.242487606147147 0 0 0
272 136 2 9.46343024268393 5.4537980440226566 -10.892035426132537 0 0 0
73 37 1 14.679299230042341 5.18446266081183 -9.934294466495567 0 0 0
58 29 2 6.719097334119879 5.8721541995285715 -11.352418027390765 0 0 0
271 136 1 9.98045275070841 6.082704150626243 -10.824338357329559 0 0 0
134 67 2 -11.579385063718789 9.770242241309463 -10.209627585375102 0 0 0
431 216 1 12.815822729284028 11.507818548262149 -11.443916773155923 0 0 0
121 61 1 -18.710582844994956 12.548988031798588 -10.596528707499717 0 0 0
122 61 2 -18.21172984431911 13.404532206120523 -10.845321196967667 0 0 0
211 106 1 14.313861407006671 15.576487171483459 -11.195195507725119 0 0 0
838 419 2 16.577442226275302 17.878013183156312 -10.607725146383393 0 0 0
857 429 1 -19.436691057987495 -19.201315501594802 -9.524797324628597 0 0 0
685 343 1 -7.782414656263152 -17.49540779661742 -9.445433795931438 0 0 0
442 221 2 18.182050220990238 -18.287249510371566 -9.514069447171444 0 0 0
989 495 1 -7.026968781636193 -16.78855321813416 -9.514057095460867 0 0 0
441 221 1 19.083460321883695 -17.095105577120634 -9.297039571957935 0 0 0
795 398 1 5.082247930957101 -14.697537900271739 -9.087549869855001 0 0 0
796 398 2 5.839359531236197 -15.520745958439338 -9.495744363829548 0 0 0
591 296 1 2.6551395612004196 -13.36123381446306 -8.532275420881074 0 0 0
481 241 1 11.191626777567341 -7.877546680719767 -9.137343662940877 0 0 0
375 188 1 -13.335134076194834 -6.706489503080717 -9.694668338794376 0 0 0
456 228 2 6.196168684506895 -5.433335048340915 -9.720838656170665 0 0 0
337 169 1 -8.339425683518908 -2.314080071452251 -8.773864207573366 0 0 0
676 338 2 4.97992029301779 -2.4970461788506944 -9.163492858292422 0 0 0
672 336 2 15.46713541147029 -1.6259281387740743 -8.740243233201786 0 0 0
671 336 1 15.295534039706848 -0.9310591961072826 -9.19816929773989 0 0 0
581 291 1 -1.1511941386012507 4.7637846981311744 -9.537917664502771 0 0 0
74 37 2 14.69946804097186 6.274402484753348 -9.312141258338842 0 0 0
133 67 1 -11.191174649640576 9.03844645401235 -9.544040900342614 0 0 0
965 483 1 -0.2768758739607501 11.752514642316743 -8.928611191915255 0 0 0
966 483 2 -0.9078935146666781 12.201020509942984 -9.344618754285273 0 0 0
235 118 1 13.01196158292699 13.14535469753321 -9.476443238340647 0 0 0
196 98 2 14.558103615241334 14.195500486034424 -9.334534074722365 0 0 0
195 98 1 16.087129275583948 13.295296750536178 -9.825019066820545 0 0 0
318 159 2 5.196801909948024 15.110479178545807 -9.127628261281796 0 0 0
837 419 1 15.373964042955746 17.765193799895993 -9.999810082307823 0 0 0
858 429 2 -19.2958302170462 -19.691535082093317 -8.313885669879038 0 0 0
517 259 1 19.393330249842766 -18.073274805927174 -7.152579371093515 0 0 0
990 495 2 -7.025243873875738 -16.433006466986296 -8.18425222262221 0 0 0
510 255 2 9.297889408638722 -16.103546909633955 -7.6221835632663 0 0 0
509 255 1 9.491978535863153 -15.617467461237299 -8.109984552323134 0 0 0
592 296 2 1.8356319399753367 -12.802124372667848 -7.204992168971027 0 0 0
307 154 1 -13.666651930575165 -10.240843690293632 -8.439305753199653 0 0 0
308 154 2 -13.048215318664159 -9.620203624026033 -8.124909847169368 0 0 0
246 123 2 2.224204096841938 -9.316602150393871 -7.536506573647662 0 0 0
245 123 1 3.140151616503114 -9.687461203853102 -7.99287455386096 0 0 0
975 488 1 -13.607380155917996 -7.35432879164114 -7.868378708302571 0 0 0
482 241 2 10.433428784521988 -7.316740196434589 -8.136446050796536 0 0 0
791 396 1 19.341394650674076 -7.121590465600796 -7.377579836845553 0 0 0
130 65 2 -18.61209743433482 -6.325395929915204 -8.074078264532696 0 0 0
129 65 1 -17.76135011148531 -5.8358284550156 -8.536069792176038 0 0 0
976 488 2 -14.152777186720575 -6.760704641348266 -7.52630062989695 0 0 0
792 396 2 18.787717197849855 -7.167928597571705 -8.199212889013834 0 0 0
160 80 2 -9.032953365899473 -5.2575271340438725 -7.219893534089921 0 0 0
159 80 1 -8.594563025203682 -4.978082722982484 -7.592949474093942 0 0 0
338 169 2 -8.918560236646387 -2.0828369969371394 -8.375709736227357 0 0 0
478 239 2 6.768713081162684 -0.04115710134981903 -8.392339713037734 0 0 0
952 476 2 18.17211233057219 -0.5169944806120683 -7.990475237153232 0 0 0
951 476 1 18.46298805885571 -0.2202926573343456 -8.110961856315276 0 0 0
878 439 2 -12.83133602756305 0.7739744235919523 -7.743611611086312 0 0 0
877 439 1 -12.062925856923403 0.41553304533649515 -7.384456331121216 0 0 0
477 239 1 6.885915097994748 0.7106371490271519 -8.334550405010601 0 0 0
789 395 1 -2.2345544508499176 1.4671552074811143 -8.040412849717455 0 0 0
18 9 2 14.708746469770565 9.208248053511735 -7.434255195055149 0 0 0
317 159 1 5.578090910893596 14.185697529978185 -8.437025317999337 0 0 0
944 472 2 8.283774569136375 13.681745639579928 -8.30512523325357 0 0 0
943 472 1 9.117773991007025 13.567006929834056 -8.633482496412979 0 0 0
236 118 2 11.934661674652979 13.532445422519029 -7.439588406216823 0 0 0
532 266 2 6.914441527290904 -19.413532451206827 -6.329603234153138 0 0 0
531 266 1 7.667239021625523 -19.44832807644407 -7.074247975082383 0 0 0
673 337 1 -5.451167844517948 -17.991584169145536 -6.300558750529038 0 0 0
674 337 2 -4.409403452592637 -17.635777854744788 -5.99857769725156 0 0 0
518 259 2 18.376735752859698 -17.80300184346907 -6.73657597499367 0 0 0
885 443 1 -17.75922021314394 -14.561707020362588 -6.503762498337899 0 0 0
886 443 2 -18.349917118851945 -13.811813617604592 -6.3840483158949075 0 0 0
786 393 2 12.693460307210566 -13.217008106599286 -7.031904735807598 0 0 0
785 393 1 11.498093710672189 -13.398302114418541 -6.874865497611504 0 0 0
131 66 1 -6.79761196130621 -10.5967383063935 -7.2614877599745675 0 0 0
132 66 2 -5.4241314621457875 -10.348345868397544 -6.955601215569501 0 0 0
608 304 2 -14.787594925979413 -9.138756519771016 -6.20881819551521 0 0 0
607 304 1 -13.913990967215907 -9.842633331964791 -6.508098789964397 0 0 0
332 166 2 6.131489507797589 -7.979841299729981 -6.140978350538055 0 0 0
331 166 1 7.030061325150311 -7.671397461863807 -6.799943233698419 0 0 0
415 208 1 -14.338346529813972 -0.37396672209858517 -7.239862357267377 0 0 0
609 305 1 -11.241141882909238 -0.41403812159239384 -5.9872134366942475 0 0 0
416 208 2 -15.131021323927348 0.20614075903861717 -6.8503192776055215 0 0 0
554 277 2 -10.029162278941337 1.0658428747280781 -6.258165910166746 0 0 0
553 277 1 -8.643574615956329 1.4770603016508006 -6.3206758099464295 0 0 0
790 395 2 -2.0956127372896836 2.1659038915108693 -7.110921250351413 0 0 0
17 9 1 14.135296296105286 9.634886240534943 -6.611682017607965 0 0 0
561 281 1 14.717239303153889 12.597537496205431 -5.880192580571791 0 0 0
412 206 2 10.258780991748514 19.177299972574918 -6.262873200596984 0 0 0
411 206 1 10.850444183961994 18.899068444423396 -5.733118070762315 0 0 0
84 42 2 -7.577241271275815 -19.85136793929813 -5.441801541443288 0 0 0
83 42 1 -6.475582483654712 -19.8430832840949 -5.49361974376878 0 0 0
743 372 1 -10.909246353458503 -16.345046622925565 -4.4025883987626715 0 0 0
604 302 2 -13.182051078940296 -15.621715083974285 -4.9647522201919045 0 0 0
348 174 2 -5.653508722997105 -15.095703137671515 -4.308641586336128 0 0 0
109 55 1 -19.59606982465699 -10.33710939913068 -4.434374954889785 1 0 0
690 345 2 16.802932772998993 -10.147103912106102 -4.898297062015567 0 0 0
67 34 1 -8.751473757248101 -8.814249118191253 -5.729051660091004 0 0 0
68 34 2 -9.925091848393649 -9.03269898842434 -5.599498771580414 0 0 0
689 345 1 17.073307582339492 -9.428551510328719 -5.820777507801472 0 0 0
110 55 2 19.686326674430376 -9.494130146874786 -4.416326671222623 0 0 0
156 78 2 -19.76468083785033 -4.267660898837013 -4.522797205063847 0 0 0
139 70 1 -16.922922641407105 -3.201987537969447 -5.254445322964228 0 0 0
140 70 2 -16.290899253650206 -3.4818673801556987 -4.803845507402619 0 0 0
70 35 2 0.5818201114933519 -4.21720783841518 -4.571630015983502 0 0 0
69 35 1 1.5215978773043013 -3.7363967531979543 -5.255522437967651 0 0 0
758 379 2 3.0628963124977173 -3.0234166513217575 -5.255425481643443 0 0 0
757 379 1 2.813190459392192 -2.4025830800287515 -5.08973697874472 0 0 0
207 104 1 -15.970051558647269 -1.5042232477542135 -4.585897890703614 0 0 0
610 305 2 -12.438936081775173 -0.6173359311236378 -5.578011232793317 0 0 0
852 426 2 -16.87875027611695 1.6653889592711046 -5.076999696985736 0 0 0
851 426 1 -15.823713958927682 1.9813944935551888 -4.310016295082789 0 0 0
536 268 2 -14.932139377444232 5.407472829688158 -5.513210533587153 0 0 0
535 268 1 -13.726135304101831 5.37422331834444 -4.178161460838811 0 0 0
718 359 2 16.558177141949134 5.306739317360645 -5.731234908237586 0 0 0
717 359 1 15.782152627274879 5.500312743254942 -5.283888237931555 0 0 0
562 281 2 14.549464660723357 12.08391903209358 -5.501596571506853 0 0 0
986 493 2 -18.930078319088953 13.604801513284475 -4.873305687028135 0 0 0
985 493 1 -18.01113141432099 13.956033870692785 -5.603214980527743 0 0 0
48 24 2 -11.572994846685935 14.414511716960401 -4.721743539776733 0 0 0
47 24 1 -11.437906049451556 15.313128001470824 -4.950737513020289 0 0 0
496 248 2 13.239622701601556 -18.952910717945873 -4.064823499977827 0 0 0
495 248 1 13.713073165389394 -19.208990404165288 -3.645678190739845 0 0 0
114 57 2 -1.892558129547593 -18.224484635533297 -3.2006904609724587 0 0 0
603 302 1 -13.317730477622892 -15.785546990768463 -4.070957688593536 0 0 0
744 372 2 -10.882464413332947 -15.546294213375859 -3.6318460492869167 0 0 0
347 174 1 -4.8453099362764815 -14.1253454220092 -4.005584202400213 0 0 0
654 327 2 2.6741514488446296 -9.788333995455405 -4.167340593832544 0 0 0
653 327 1 3.7669891353837377 -9.170447561041273 -4.122113222323783 0 0 0
150 75 2 9.751552657844137 -9.781484401462503 -4.171222847630464 0 0 0
149 75 1 10.597104029564038 -9.812337908128393 -4.08362298017103 0 0 0
904 452 2 -17.845747576051295 -7.526999910142219 -3.7988720801497116 0 0 0
903 452 1 -17.135274960922917 -8.025058376180935 -3.8894124263219316 0 0 0
782 391 2 -12.544540355028417 -8.36567374070263 -2.9663695935245173 0 0 0
781 391 1 -11.107458029530159 -8.219927542077079 -3.105492770997494 0 0 0
155 78 1 19.967017416981477 -5.121579322464277 -3.878830369310559 -1 0 0
208 104 2 -16.900684926257206 -0.9925464377495864 -4.171835995063926 0 0 0
174 87 2 -4.277167706063513 0.5867448597944278 -2.9313325504212338 0 0 0
681 341 1 -11.36689313458654 2.7862995348949546 -3.1485580512606925 0 0 0
173 87 1 -4.160126478112616 1.4196551625801999 -2.8496117479349876 0 0 0
584 292 2 -2.3500169820219616 2.0568617804135 -3.87912363712215 0 0 0
313 157 1 -14.454776165972211 4.102562170775087 -3.230037653700305 0 0 0
682 341 2 -11.780612200696199 2.7999762919565874 -3.159508250600848 0 0 0
583 292 1 -1.7455877281917473 2.8210039286158284 -3.6265006826045427 0 0 0
668 334 2 -0.6540968627875829 4.348931496362014 -3.9409370842803804 0 0 0
667 334 1 -0.05216278638052312 5.015777106066506 -4.167725198141031 0 0 0
594 297 2 5.983725238451047 5.3181323799674 -2.9154750016147752 0 0 0
822 411 2 9.36704938478975 5.703050054190739 -3.362233592957532 0 0 0
821 411 1 10.498626586849793 5.505880323449036 -3.683683016336398 0 0 0
764 382 2 -12.780774592073291 6.7789370171832655 -4.197079188649852 0 0 0
763 382 1 -11.91315187082126 6.2756511760378295 -3.611746783695886 0 0 0
695 348 1 -16.111192027095406 10.806287917031476 -4.01438338871278 0 0 0
696 348 2 -15.73283722336322 11.610377434501386 -4.184423277818596 0 0 0
334 167 2 -14.31390134385386 15.213608875535693 -3.6350273763636 0 0 0
333 167 1 -14.143588475932567 15.172029889187977 -3.570335636736972 0 0 0
341 171 1 8.1276323869534 15.852469294272353 -3.873442022551801 0 0 0
342 171 2 7.7757893545473955 16.112405561360305 -3.3417669360041566 0 0 0
728 364 2 3.4927387402303496 19.338315811320598 -4.103794201278338 0 0 0
727 364 1 4.260512174022535 19.682952669534856 -3.7945124628918223 0 0 0
113 57 1 -1.7761806803576856 -19.380747886631656 -2.719981075492278 0 0 0
817 409 1 10.779327183791132 -16.80634685249524 -2.2350257044047295 0 0 0
818 409 2 11.547463367239038 -16.994074939709208 -1.429679940848433 0 0 0
283 142 1 -18.849008998277483 -15.03088747112663 -2.058027643627598 0 0 0