LAMMPS data file via write_data, version 2 Aug 2023, timestep = 100000, units = real

2760 atoms
9 atom types
2864 bonds
8 bond types
4792 angles
12 angle types
7296 dihedrals
14 dihedral types
2112 impropers
7 improper types

-17.011999130249023 17.011999130249023 xlo xhi
-17.011999130249023 17.011999130249023 ylo yhi
-17.011999130249023 17.011999130249023 zlo zhi

Masses

1 15.999
2 1.00784
3 12.011
4 12.011
5 12.011
6 1.008
7 1.008
8 14.007
9 65.38

Pair Coeffs # lj/cut/tip4p/long

1 0.1848 3.165
2 0 0
3 0.086 3.4
4 0.086 3.4
5 0.1094 3.4
6 0.015 2.511
7 0.0157 2.65
8 0.17 3.25
9 0.0125 1.96

Bond Coeffs # harmonic

1 0 0.9572
2 346.543 1.49
3 488 1.335
4 540.249 1.35
5 367 1.08
6 440.221 1.37
7 340 1.09
8 78.5 2.011

Angle Coeffs # harmonic

1 0 104.52
2 48.088 109.32
3 71.254 105.27
4 48.68 128.33
5 49.451 125.67
6 76.75 108.65
7 32.477 126.4
8 66.015 123.92
9 49.954 125.68
10 35 109.5
11 75.484 112.16
12 35.24 109.48

Dihedral Coeffs # charmm

1 0 0 0 0
2 2.325 2 180 0
3 2.325 2 180 0
4 0 0 0 0
5 5 2 180 0
6 5 2 180 0
7 5.15 2 180 0
8 5.15 2 180 0
9 2.325 2 180 0
10 2.325 2 180 0
11 0 0 0 0
12 5 2 180 0
13 5 2 180 0
14 5.15 2 180 0

Improper Coeffs # harmonic

1 0 0
2 2 180
3 2 180
4 2 180
5 0 0
6 0 0
7 0 0

Atoms # full

2409 68 2 0.527 -14.225087506958685 -13.259168550197383 -13.490278561771348 0 0 0
2497 98 1 -1.054 -14.314973954062982 -11.579956740485093 -13.756374823122824 0 0 0
2499 98 2 0.527 -14.705731299159275 -10.75771255944282 -13.42344186961101 0 0 0
2266 21 1 -1.054 -15.047761501737096 -8.893455452939573 -14.019643383504166 0 0 0
2268 21 2 0.527 -14.489052041332235 -8.822921034943988 -14.794720608938942 0 0 0
2267 21 2 0.527 -15.84589150494247 -8.458254858720565 -14.269614057249013 0 0 0
2498 98 2 0.527 -14.57106166459848 -11.614247302267685 -14.68560536396612 0 0 0
2407 68 1 -1.054 -14.063328946114709 -14.2126240858735 -13.520721291437573 0 0 0
2408 68 2 0.527 -14.254538926934476 -14.511052628515626 -12.618785777017393 0 0 0
2662 153 1 -1.054 -13.298406138839022 -15.411027634279986 -11.314686593852823 0 0 0
2475 90 2 0.527 -11.714778484742077 -15.917710986840632 -15.761194164882646 0 0 0
2391 62 2 0.527 -12.6291502938621 -15.196223914317772 -13.799994638542351 0 0 0
2546 114 2 0.527 -9.410991940869595 -8.898958795929246 -10.002392249461378 0 0 0
2545 114 1 -1.054 -10.12454775330339 -9.538625802052717 -9.8797987601956 0 0 0
2547 114 2 0.527 -10.911941790198624 -9.037295257690458 -10.081139718014741 0 0 0
2389 62 1 -1.054 -11.950206634428563 -15.846558050434156 -13.907857035054876 0 0 0
2397 64 2 0.527 -10.267780612479433 -13.160243391387965 -9.386270878923195 0 0 0
2396 64 2 0.527 -9.50765581882186 -12.143423370642564 -10.19494042922738 0 0 0
2395 64 1 -1.054 -9.6613253697422 -13.075945193533906 -10.098213899760927 0 0 0
2519 105 2 0.527 -14.02004155374265 -15.675222237231237 -16.3701313801905 0 0 0
2518 105 1 -1.054 -14.727295869893435 -15.1588153898732 -16.005020130332454 0 0 0
2664 153 2 0.527 -12.850125401661115 -16.273284690540958 -11.28671638269179 0 0 0
2520 105 2 0.527 -14.437584290500075 -14.925364507830633 -15.122119752241264 0 0 0
2243 13 2 0.527 -10.534522139747402 -16.58376968580677 -10.91316329350232 0 1 0
2549 115 2 0.527 -9.227345585421018 -14.76494430921622 -10.513392336844598 0 0 0
2663 153 2 0.527 -12.669614169066636 -14.831954923826626 -11.745548115107471 0 0 0
2548 115 1 -1.054 -9.130363508320636 -15.6094378626572 -10.97730968715174 0 0 0
2386 61 1 -1.054 -14.748496431781948 -12.4275604202846 -16.481614422530832 0 0 0
2387 61 2 0.527 -14.596644270302832 -13.37702985812897 -16.35281447104742 0 0 0
2473 90 1 -1.054 -12.057770149740655 -15.830181854165895 -16.658986021186866 0 0 0
2474 90 2 0.527 -12.166897850182552 -14.88773006114974 -16.788627963904236 0 0 0
2390 62 2 0.527 -11.763579949306843 -16.132958701546766 -13.008475747155085 0 0 0
2242 13 1 -1.054 -11.19249862440719 16.856969409584845 -11.302127344237027 0 0 0
2388 61 2 0.527 -15.01377601778603 -12.353721321900004 16.631736144945567 0 0 -1
6 1 9 0.736043478261 -2.527982762752119 -12.923466386761985 -9.194450325070243 0 0 0
19 1 3 0.433743478261 -2.535455981564338 -10.788294049338454 -15.551532818849411 0 0 0
20 1 3 0.433743478261 -2.687540532227542 -10.862632345982837 -11.153718274353109 0 0 0
21 1 3 0.433743478261 -2.432177493338636 -15.04103688492552 -11.416117155160588 0 0 0
22 1 3 0.433743478261 -2.744143909987957 -15.02688053546337 -15.62437506753695 0 0 0
43 1 4 -0.192556521739 -4.459799236769312 -9.94890967390881 -15.642500400864764 0 0 0
44 1 4 -0.192556521739 -0.6826817840119368 -10.020341809005176 -11.421166451695752 0 0 0
45 1 4 -0.192556521739 -4.397377012093303 -15.802459038351039 -11.524799838629457 0 0 0
46 1 4 -0.192556521739 -0.8317067608292431 -16.02030270197594 -15.682361197235716 0 0 0
47 1 4 -0.192556521739 -4.4082093017355 -14.785459047839675 -10.63618498577613 0 0 0
48 1 4 -0.192556521739 -0.6455328784893084 -10.97557248481525 -10.487747559186388 0 0 0
95 1 6 0.158343478261 -5.333560486132514 -14.439932453526662 -10.190269031766215 0 0 0
139 1 5 -0.602556521739 -1.1794963812961659 -11.26531057842275 -15.084977960549486 0 0 0
140 1 5 -0.602556521739 -4.150481220197083 -11.079510472088607 -11.548825654543494 0 0 0
141 1 5 -0.602556521739 -1.056547979849975 -14.785788116588241 -11.816542010801259 0 0 0
142 1 5 -0.602556521739 -4.157786472551975 -14.708939221287427 -15.30794023163888 0 0 0
163 1 7 0.157043478261 -0.8518807831434813 -13.732553394638806 -12.083994015163796 0 0 0
166 1 7 0.157043478261 -4.775851586201438 -11.137948134797842 -10.678296227008335 0 0 0
169 1 7 0.157043478261 -0.9140655327620489 -15.369835368778096 -12.633217147890349 0 0 0
170 1 7 0.157043478261 -4.1794556171925965 -11.980838696174951 -12.186641049226127 0 0 0
211 1 7 0.157043478261 -0.29785135375140975 -15.072243303406703 -11.01887680188348 0 0 0
214 1 7 0.157043478261 -4.624349575672082 -10.326988084437225 -12.14975264387555 0 0 0
235 1 8 -0.300956521739 -3.3109706144302637 -9.852370642204772 -14.952909244187094 0 0 0
236 1 8 -0.300956521739 -2.046340240018395 -9.859991924328874 -11.73371033912787 0 0 0
237 1 8 -0.300956521739 -3.084082222748462 -15.972474168060495 -11.9918657897036 0 0 0
238 1 8 -0.300956521739 -2.078240543421204 -15.975676960398534 -15.041505920109632 0 0 0
239 1 8 -0.300956521739 -3.1122271801417547 -14.393014618610732 -10.431635087985823 0 0 0
240 1 8 -0.300956521739 -1.9094751804292873 -11.505137207152721 -10.341701628966485 0 0 0
168 1 7 0.157043478261 -4.392716520828967 -13.638663598169082 -15.644284686145225 0 0 0
91 1 6 0.158343478261 -5.317627083753461 -9.446863510741759 -15.46455936918363 0 0 0
5 1 9 0.736043478261 -2.671142954355219 -8.694012339461478 -13.327358852140335 0 0 0
213 1 7 0.157043478261 -0.8804659083156898 -12.127835389606687 -15.703735195082583 0 0 0
167 1 7 0.157043478261 -0.4073411006806395 -10.480156029605435 -15.089092407847875 0 0 0
212 1 7 0.157043478261 -4.291657627755151 -14.623162728404324 -14.160332633747412 0 0 0
164 1 7 0.157043478261 -4.831997864806692 -15.458462035412117 -15.7462836333552 0 0 0
165 1 7 0.157043478261 -1.2536321492223115 -11.716228302247938 -14.07509129289802 0 0 0
242 1 8 -0.300956521739 -2.1164634994575486 -14.438335224216042 -16.657555579675194 0 0 0
241 1 8 -0.300956521739 -3.132491536061892 -11.343904151614263 -16.61134631136251 0 0 0
50 1 4 -0.192556521739 -0.9311387460503286 -15.08603038473788 -16.67777770731376 0 0 0
92 1 6 0.158343478261 0.1565892038525023 -9.43648880790061 -11.715042143599224 0 0 0
2550 115 2 0.527 -9.129915286242857 -15.377624833671478 -11.91329898259081 0 0 0
109 1 6 0.158343478261 -0.9643795203761871 -15.830960696299101 -8.50769411659622 0 0 0
110 1 6 0.158343478261 -4.054045354523596 -10.026934059006082 -8.26573388004163 0 0 0
126 1 6 0.158343478261 -4.718756786160983 -8.113484543571866 -10.854485823022314 0 0 0
96 1 6 0.158343478261 0.28182548084629183 -11.455012345198831 -10.135389313916098 0 0 0
49 1 4 -0.192556521739 -4.35152205430458 -10.663057163187558 -16.77686332402518 0 0 0
93 1 6 0.158343478261 -5.249096765293335 -16.369154904079 -11.887242053825778 0 0 0
2365 54 1 -1.054 7.086075962505641 -13.648432800670507 -13.182973399154042 0 0 0
2367 54 2 0.527 7.616169949458695 -13.167743462836249 -12.546390860340273 0 0 0
2506 101 1 -1.054 5.986038260295804 -9.31780570991329 -9.533745496814008 0 0 0
2508 101 2 0.527 6.562379622747495 -9.652156776788635 -10.231310958721092 0 0 0
2515 104 1 -1.054 4.244840651022725 -11.133246054456633 -11.890855558910738 0 0 0
2516 104 2 0.527 3.6311968140754898 -11.10600320907442 -12.624288563400427 0 0 0
2517 104 2 0.527 4.387310149328132 -10.224930446701755 -11.670151388581866 0 0 0
2590 129 1 -1.054 2.2456047381254995 -10.521145898058377 -13.984984036748331 0 0 0
2592 129 2 0.527 2.0259201826167623 -11.434919109161234 -14.152754813560637 0 0 0
2285 27 2 0.527 6.9040707660256375 -13.638149919660698 -9.425624027068146 0 0 0
2284 27 1 -1.054 7.415528516312507 -14.452875844214812 -9.44313786439578 0 0 0
2572 123 1 -1.054 5.963576984651577 -12.210634077127095 -9.75403020268755 0 0 1
2469 88 2 0.527 7.099528821885824 -11.690513529951488 -13.811331305543304 0 1 0
2467 88 1 -1.054 6.747333178333124 -10.810369267377292 -13.624371005444633 0 1 0
2468 88 2 0.527 5.897860495990227 -10.96843131862123 -13.228415591092396 0 1 0
2574 123 2 0.527 5.562567027394015 -12.141740642308875 -10.631462736684087 0 0 1
2573 123 2 0.527 5.921360647632982 -11.309871926367766 -9.406367826325951 0 0 1
2286 27 2 0.527 7.346301297892556 -14.79066965084566 -8.54368846611142 0 0 0
2689 162 1 -1.054 1.6892894076473297 -13.331911301496419 -14.481263474626502 0 0 0
2690 162 2 0.527 1.4448967118067184 -14.233313226114891 -14.264950769052739 0 0 0
2691 162 2 0.527 1.7837340789879768 -13.34927559702597 -15.423672790102113 0 0 0
2448 81 2 0.527 7.939598709410064 -10.25246909417741 -12.307190449224468 0 0 0
2591 129 2 0.527 1.419409368364849 -10.056414279610346 -14.015919645357693 0 0 0
2712 169 2 0.527 8.437098354282151 -9.989785136902633 16.412891957860346 0 0 0
2366 54 2 0.527 7.664930527719264 -14.323010001410436 -13.56413484877623 0 0 0
2446 81 1 -1.054 8.482057878006305 -10.090535137132228 -11.549097313164589 0 0 0
2695 164 1 -1.054 7.997819245246189 -16.368844135146517 -11.540217688482606 0 0 0
2697 164 2 0.527 7.7346204926242885 -15.827408060875005 -10.792446800253325 0 0 0
2447 81 2 0.527 8.680629562251648 -10.964830955826859 -11.206083880662732 0 0 0
2711 169 2 0.527 9.117949188969629 -9.338494816385358 -16.417859420816626 0 0 1
2710 169 1 -1.054 9.288285840431463 -9.882265644377041 16.828830614011615 0 0 0
2507 101 2 0.527 6.547600399473159 -8.75187895654365 -9.019385645456191 0 0 0
1200 1 6 0.158343478261 -17.00996557058674 -11.23158670736589 -9.900497834062167 1 0 0
1196 1 6 0.158343478261 -16.884840008845956 -9.384181551171576 -11.669136962026725 1 0 0
2316 37 2 0.527 9.566158262963937 -13.27141911003266 -11.556303736097266 0 0 0
2315 37 2 0.527 8.783736571382663 -13.2231349837032 -10.253699204340851 0 0 0
2334 43 2 0.527 10.313671568365905 -14.940536593487012 -13.442085493354385 0 1 0
2332 43 1 -1.054 9.806989685221424 -14.489574556062403 -12.765049859898143 0 1 0
2333 43 2 0.527 9.486310738431877 -15.193613937503759 -12.19000073730773 0 1 0
2314 37 1 -1.054 9.176494265163901 -12.658335650117108 -10.909277360318272 0 0 0
1110 1 9 0.736043478261 14.253188633860265 -13.01243719844854 -9.390512353488294 0 0 0
1123 1 3 0.433743478261 14.510732730854219 -10.699834289671966 -15.612434702823057 0 0 0
1124 1 3 0.433743478261 14.257570609627642 -10.701636549542716 -11.411287517082688 0 0 0
1125 1 3 0.433743478261 14.319725913126996 -15.282723684817784 -11.46993797362601 0 0 0
1126 1 3 0.433743478261 14.10830495944285 -15.073405078010001 -15.4738776002011 0 0 0
1147 1 4 -0.192556521739 12.586055613147506 -9.723664713050042 -15.621822721797281 0 0 0
1148 1 4 -0.192556521739 16.247241480633953 -9.905035780850863 -11.41715112319763 0 0 0
1150 1 4 -0.192556521739 16.016080523838895 -16.18181740503129 -15.737612077671253 0 0 0
1151 1 4 -0.192556521739 12.394145326693277 -15.198629525932459 -10.450350383241732 0 0 0
1152 1 4 -0.192556521739 16.20581528959379 -10.884075885698412 -10.516332497404223 0 0 0
1199 1 6 0.158343478261 11.561346347870387 -14.87825623381927 -9.887681293044503 0 0 0
1243 1 5 -0.602556521739 15.879952596609604 -11.193790611445616 -15.161112117087006 0 0 0
1244 1 5 -0.602556521739 12.87094568403458 -11.002001795061357 -11.783055450383527 0 0 0
1245 1 5 -0.602556521739 15.686396532894495 -14.819307499199303 -11.964107670940546 0 0 0
1246 1 5 -0.602556521739 12.722778237367612 -14.762170559370515 -14.976511024386086 0 0 0
1267 1 7 0.157043478261 16.200088561214706 -14.302689596550971 -11.165718629487298 0 0 0
1270 1 7 0.157043478261 12.625715516566148 -11.906796710392001 -11.301718218684075 0 0 0
1273 1 7 0.157043478261 15.401334610269831 -14.08438095676142 -12.677379198480482 0 0 0
1274 1 7 0.157043478261 12.831154052103221 -11.064350383849785 -12.85852469708046 0 0 0
1315 1 7 0.157043478261 16.22063208929871 -15.770858187079654 -12.285796051942842 0 0 0
1317 1 7 0.157043478261 16.20735936449661 -11.8863291414083 -15.95016981920622 0 0 0
1318 1 7 0.157043478261 12.100782378880293 -10.301465137395722 -11.44929248615439 0 0 0
1339 1 8 -0.300956521739 13.879303826383591 -9.710571377382248 -15.049786246095774 0 0 0
1340 1 8 -0.300956521739 14.997111474464429 -9.747068407734146 -11.981188889416607 0 0 0
1341 1 8 -0.300956521739 13.672343573177134 -16.30075182928409 -11.956522446185161 0 0 0
1342 1 8 -0.300956521739 14.821447570882627 -16.08184102401191 -14.982418940841052 0 0 0
1343 1 8 -0.300956521739 13.607045552154176 -14.56590749878141 -10.527649060120687 0 0 0
1344 1 8 -0.300956521739 14.919727819842938 -11.340132557751401 -10.425923509521406 0 0 0
1195 1 6 0.158343478261 11.835849913742653 -8.999083659836218 -15.390830001705428 0 0 0
1109 1 9 0.736043478261 14.499045979748153 -8.469202565297053 -13.557147872446974 0 0 0
1316 1 7 0.157043478261 12.050964458742284 -15.518216522685492 -15.336591385263596 0 0 0
1269 1 7 0.157043478261 15.701806598588758 -11.823371105981629 -14.307720190744911 0 0 0
1272 1 7 0.157043478261 12.646860405392848 -14.673942707706441 -13.870852335761061 0 0 0
1271 1 7 0.157043478261 16.605612887677392 -10.398498607010477 -14.96799539133391 0 0 0
1268 1 7 0.157043478261 12.419050257007388 -13.793352626728627 -15.379648198335055 0 0 0
1345 1 8 -0.300956521739 13.785741860592314 -11.340167226430268 -16.522127554000935 0 0 0
1346 1 8 -0.300956521739 14.772116371272888 -14.451207133660734 -16.454679144020968 0 0 0
1153 1 4 -0.192556521739 12.549986072781506 -10.700713564684856 -16.54159418836705 0 0 0
1149 1 4 -0.192556521739 12.416030368844066 -16.191444899538027 -11.370404770622814 0 0 0
1214 1 6 0.158343478261 12.465160952145439 -10.619857536627608 -8.862683967749366 0 0 0
1213 1 6 0.158343478261 16.340418339956166 -15.612433277788627 -8.926694660672295 0 0 0
1154 1 4 -0.192556521739 16.021660880233814 -15.026619979298939 -16.541164271568974 0 0 0
1198 1 6 0.158343478261 16.827110378460308 -16.92623398600392 -15.712444220826645 0 0 0
1 1 9 0.736043478261 -10.939690816021786 -4.213705268229404 -9.230751915746149 0 0 0
11 1 3 0.433743478261 -13.151717750879797 -4.074068636117718 -11.280757486150529 0 0 0
12 1 3 0.433743478261 -8.972557028998805 -4.250556292233476 -11.37360538046358 0 0 0
14 1 3 0.433743478261 -13.23733639131696 -4.550304079145948 -15.511918135265546 0 0 0
35 1 4 -0.192556521739 -13.081463637457228 -5.993839656595299 -10.397233209844856 0 0 0
57 1 4 -0.192556521739 -13.967377553521704 -6.0016768595773895 -11.391891023320582 0 0 0
58 1 4 -0.192556521739 -14.273467349032781 -2.616880390105142 -15.664043602193379 0 0 0
83 1 6 0.158343478261 -12.745736947355157 -6.857327361953634 -9.809976544969942 0 0 0
84 1 6 0.158343478261 -9.296831381486852 -1.3773119428467522 -10.019828847627954 0 0 0
105 1 6 0.158343478261 -14.475248277076776 -6.876525964159828 -11.824407635312618 0 0 0
106 1 6 0.158343478261 -14.972459588373816 -1.7879689477496727 -15.436893004124348 0 0 0
131 1 5 -0.602556521739 -12.977127104418416 -2.6247547222629883 -11.57586595258598 0 0 0
132 1 5 -0.602556521739 -9.453335755866616 -5.606343325249455 -11.744466726234618 0 0 0
133 1 5 -0.602556521739 -9.539713966429359 -2.924529266734074 -15.285626338656964 0 0 0
134 1 5 -0.602556521739 -12.839109033237564 -5.884064029403201 -15.10954078572309 0 0 0
157 1 7 0.157043478261 -13.693448661466363 -2.030303889199506 -10.943630161107775 0 0 0
175 1 7 0.157043478261 -13.267017670229084 -2.3457624054210116 -12.590552202343382 0 0 0
204 1 7 0.157043478261 -11.780513303771835 -5.958065120142388 -15.458194183752358 0 0 0
205 1 7 0.157043478261 -11.959254657343061 -2.33990809537922 -11.363534804391044 0 0 0
227 1 8 -0.300956521739 -12.473201525578157 -4.740950016556001 -10.345082301506258 0 0 0
228 1 8 -0.300956521739 -9.555361786437286 -3.5081269047069275 -10.447937007380212 0 0 0
249 1 8 -0.300956521739 -14.10514946922159 -4.791693725231526 -11.923817648586013 0 0 0
250 1 8 -0.300956521739 -14.150294663022914 -3.7580274098692406 -14.960938929491252 0 0 0
276 1 9 0.736043478261 -15.360056591162177 -4.36552202445496 -13.523761910615905 0 0 0
1216 1 6 0.158343478261 -16.246296925246806 -2.535283712568918 -10.754920519615041 1 0 0
36 1 4 -0.192556521739 -9.08167361991606 -2.2283228310847023 -10.602989855811987 0 0 0
13 1 3 0.433743478261 -9.038483828732941 -4.261837444110994 -15.666082801207658 0 0 0
176 1 7 0.157043478261 -12.836068942198619 -6.094556152445105 -14.079312670823795 0 0 0
1360 1 8 -0.300956521739 -16.521262043038373 -2.8199357874412456 -12.94938861149309 1 0 0
1167 1 4 -0.192556521739 -16.510628119223604 -6.435908408556663 -15.365942259596238 1 0 0
1359 1 8 -0.300956521739 -16.43886925193009 -5.855457169366431 -14.142031866742618 1 0 0
1215 1 6 0.158343478261 -15.846341425789674 -6.157445032227819 -16.16564860319073 1 0 0
156 1 7 0.157043478261 -13.313480200556324 -6.580735816601063 -15.739281026843342 0 0 0
203 1 7 0.157043478261 -10.201742719968498 -2.5425484011399577 -16.081386783587494 0 0 0
230 1 8 -0.300956521739 -12.651205011593866 -3.9182563027270887 -16.493526245628665 0 0 0
38 1 4 -0.192556521739 -13.327736373101493 -2.7603117315787142 -16.62374156132836 0 0 0
229 1 8 -0.300956521739 -9.550436385285616 -4.9823983763792725 -16.664866575726492 0 0 0
158 1 7 0.157043478261 -10.304735439794655 -5.481997499622774 -12.38636994099208 0 0 0
206 1 7 0.157043478261 -8.640889943855031 -6.166538929101702 -12.288006925990858 0 0 0
155 1 7 0.157043478261 -8.767535131502369 -2.201143020853057 -14.978112378453764 0 0 0
37 1 4 -0.192556521739 -8.721101075593756 -6.105037540576571 -16.74665056764154 0 0 0
178 1 7 0.157043478261 -9.764818776697169 -6.275173276776821 -10.964003991805455 0 0 0
121 1 6 0.158343478261 -13.743134280794065 -2.7210394204343373 -8.620964615329743 0 0 0
177 1 7 0.157043478261 -10.144040838477682 -3.0933462109127343 -14.391097365722775 0 0 0
122 1 6 0.158343478261 -8.284736124435877 -6.312395543628988 -8.793704555149432 0 0 0
125 1 6 0.158343478261 -0.8969296545394131 -8.360634155555413 -16.03162006112289 0 0 0
248 1 8 -0.300956521739 -8.040685820196234 -3.5347905611086983 -12.068257176080262 0 0 0
56 1 4 -0.192556521739 -8.09342876637075 -2.2446784599316594 -11.561934095225316 0 0 0
247 1 8 -0.300956521739 -7.992816699838802 -4.815216031791988 -15.105440281294051 0 0 0
55 1 4 -0.192556521739 -7.798829907776605 -5.9660568839386015 -15.83558631659968 0 0 0
103 1 6 0.158343478261 -7.032096196849738 -6.7719750468859 -15.666967396677578 0 0 0
104 1 6 0.158343478261 -7.598300940819292 -1.4022135431541387 -11.85885182503696 0 0 0
10 1 9 0.736043478261 -6.813077568640169 -4.203294933862419 -13.528604978651918 0 0 0
27 1 3 0.433743478261 -0.44069277802002926 -6.594009924268656 -13.41932379788701 0 0 0
28 1 3 0.433743478261 -0.3318673980276897 -2.4833567640991854 -13.712725146519494 0 0 0
29 1 3 0.433743478261 -4.538014656173903 -2.2930177077587466 -13.486983798932446 0 0 0
30 1 3 0.433743478261 -4.82022634318043 -6.476802471406284 -13.599442998112616 0 0 0
65 1 4 -0.192556521739 -5.492687215788234 -2.23870507356884 -15.381550184994444 0 0 0
66 1 4 -0.192556521739 -5.840920927049784 -6.5143909104124855 -11.696131534963554 0 0 0
75 1 4 -0.192556521739 -4.417677740334914 -1.4719537688502302 -15.379173811170372 0 0 0
77 1 4 -0.192556521739 -0.5304191038687276 -7.673101353560851 -15.260782111464925 0 0 0
78 1 4 -0.192556521739 -4.892764579532105 -7.502307888510492 -11.668276959088393 0 0 0
114 1 6 0.158343478261 -6.478481923360156 -6.283944080806486 -10.881583723906534 0 0 0
147 1 5 -0.602556521739 -0.7104761392306749 -6.180675638656003 -12.036009114883816 0 0 0
148 1 5 -0.602556521739 -0.8954619160193893 -2.965018376174059 -15.000757416801536 0 0 0
149 1 5 -0.602556521739 -4.2054313391623195 -2.596319827187157 -12.13011335104719 0 0 0
150 1 5 -0.602556521739 -4.296614562073434 -6.124876232160373 -14.964644099090068 0 0 0
183 1 7 0.157043478261 -5.037375743246518 -2.7826746064516024 -11.450032478492723 0 0 0
196 1 7 0.157043478261 -5.014046588197433 -6.168965335945048 -15.740583252412698 0 0 0
197 1 7 0.157043478261 -3.3471398063804845 -2.136049077862102 -11.713490518208898 0 0 0
219 1 7 0.157043478261 -3.7877954070476543 -3.615499872449041 -12.17790816895208 0 0 0
220 1 7 0.157043478261 -3.338713019944588 -6.682241503753875 -15.24760150493646 0 0 0
257 1 8 -0.300956521739 -5.573916954908729 -2.796266584390897 -14.149921507744661 0 0 0
258 1 8 -0.300956521739 -5.761595895929673 -5.807709427525165 -12.936263701921524 0 0 0
267 1 8 -0.300956521739 -3.864593069907976 -1.3909997153259777 -14.147022701270107 0 0 0
268 1 8 -0.300956521739 -0.7225694904162695 -1.3871734070075612 -13.054952044678094 0 0 0
269 1 8 -0.300956521739 -1.030609462918693 -7.627862638522054 -14.031468027507147 0 0 0
270 1 8 -0.300956521739 -4.324015746155279 -7.525030869344485 -12.923960674504102 0 0 0
186 1 7 0.157043478261 -0.25598231432864277 -3.7806703783926165 -15.401963882550438 0 0 0
827 1 9 0.736043478261 -2.3546109131609994 -0.2908730249215098 -13.495703503233583 0 0 0
113 1 6 0.158343478261 -6.186812659327278 -2.419114935509544 -16.224449914702543 0 0 0
184 1 7 0.157043478261 -3.9419826148076504 -5.109086657995541 -14.913029144938973 0 0 0
2604 133 2 0.527 -4.43076238672947 -6.857177037461589 -6.918222792186979 0 0 0
123 1 6 0.158343478261 -4.1536622321861225 -0.7894256629385976 -16.207499530227473 0 0 0
124 1 6 0.158343478261 0.014677874385183245 -0.5437096255995718 -11.213724426351014 0 0 0
221 1 7 0.157043478261 -0.9477003794158589 -7.0804586418841655 -11.411577838865115 0 0 0
76 1 4 -0.192556521739 0.09460580289371877 -1.2820458947726727 -11.953390167322148 0 0 0
195 1 7 0.157043478261 0.1980700599248852 -5.768717102690697 -11.633095840810267 0 0 0
198 1 7 0.157043478261 -0.9464597079948698 -2.0149616095238474 -15.599144333222753 0 0 0
185 1 7 0.157043478261 -1.5546463808399316 -5.456205896363213 -12.01352953040624 0 0 0
222 1 7 0.157043478261 -1.8556090850745415 -3.406123439892303 -14.874617301505106 0 0 0
646 1 6 0.158343478261 0.35144941000444124 0.4644704053335962 -15.424470624435823 0 0 0
63 1 4 -0.192556521739 0.36848506785032337 -6.670670200317225 -15.39447432694924 0 0 0
64 1 4 -0.192556521739 0.9374416063769269 -2.367406574761767 -11.943251647944473 0 0 0
255 1 8 -0.300956521739 0.49096381896789154 -6.078379996892943 -14.21721871090486 0 0 0
256 1 8 -0.300956521739 0.711006289749055 -3.0440648639798407 -13.08039187905754 0 0 0
112 1 6 0.158343478261 1.663723378190333 -2.6247502809947574 -11.122439083397547 0 0 0
1115 1 3 0.433743478261 3.9888190577993354 -4.603416949761585 -11.582302977287867 0 0 0
1116 1 3 0.433743478261 7.983473099363542 -4.634470908787953 -11.735246106380835 0 0 0
1117 1 3 0.433743478261 8.134346243572137 -4.472489858708011 -15.817648821702516 0 0 0
1118 1 3 0.433743478261 3.996432199414059 -4.699068231987309 -15.778193354718933 0 0 0
1139 1 4 -0.192556521739 3.692636361422856 -6.502525550697224 -10.590966959382396 0 0 0
1161 1 4 -0.192556521739 2.7758386929894208 -6.352277341420361 -11.596215280247833 0 0 0
1162 1 4 -0.192556521739 2.9677853140044497 -2.7998654254307964 -15.918837080835146 0 0 0
1187 1 6 0.158343478261 3.8361529500101885 -7.406177944018934 -9.940085742965351 0 0 0
1188 1 6 0.158343478261 7.951191394549924 -2.113990828416623 -9.757706938811134 0 0 0
1209 1 6 0.158343478261 2.0477322832964786 -7.082742107877323 -11.99477868932674 0 0 0
1210 1 6 0.158343478261 2.33294188479878 -1.939032935896576 -15.777956254602158 0 0 0
1235 1 5 -0.602556521739 4.515945201958218 -3.293192602921007 -11.982936652909483 0 0 0
1236 1 5 -0.602556521739 7.684000121945337 -5.9449129706233474 -12.3144877829477 0 0 0
1237 1 5 -0.602556521739 7.638175237383056 -3.0958395824615366 -15.435832285155943 0 0 0
1238 1 5 -0.602556521739 4.5148426814492115 -6.01667868010606 -15.319858017832235 0 0 0
1260 1 7 0.157043478261 3.739781139627552 -6.778897924450931 -15.318744369039807 0 0 0
1261 1 7 0.157043478261 5.271678693177569 -3.5071702243289575 -12.72230945364587 0 0 0
1279 1 7 0.157043478261 4.95479042620366 -2.7145704007798086 -11.17456432261263 0 0 0
1309 1 7 0.157043478261 3.713338512402055 -2.69259104970223 -12.456853833056984 0 0 0
1331 1 8 -0.300956521739 4.461627050904224 -5.338618841181345 -10.581249126548835 0 0 0
1332 1 8 -0.300956521739 7.5245277860341195 -4.153403317554323 -10.597102532353135 0 0 0
1353 1 8 -0.300956521739 2.8966718455411775 -5.124866463632688 -12.204333458819692 0 0 0
1354 1 8 -0.300956521739 2.998222772697136 -4.020538831043828 -15.211415107114167 0 0 0
1380 1 9 0.736043478261 1.786764893565071 -4.603365851855524 -13.74142484319577 0 0 0
1105 1 9 0.736043478261 5.995352938067126 -4.865644592894159 -9.429033771927124 0 0 0
1140 1 4 -0.192556521739 8.149432001280896 -2.8912606817112887 -10.516585344989155 0 0 0
1308 1 7 0.157043478261 5.345938309664299 -6.415409355502931 -15.946126867715003 0 0 0
1259 1 7 0.157043478261 7.339426875091318 -2.6132734602804377 -16.288264124704067 0 0 0
1280 1 7 0.157043478261 4.858540758738518 -5.914360369372744 -14.315344424598564 0 0 0
111 1 6 0.158343478261 1.0046616778995432 -6.551282754664709 -16.259643736888997 0 0 0
1334 1 8 -0.300956521739 4.568418678196212 -4.059518286207213 -16.775543471079864 0 0 0
1333 1 8 -0.300956521739 7.571722997607396 -5.221825566305897 -16.803255304515435 0 0 0
1141 1 4 -0.192556521739 8.363334135480583 -6.365505321648729 -16.861500772123584 0 0 0
1281 1 7 0.157043478261 8.414238466914185 -2.6535287158374676 -14.873060390693666 0 0 0
1310 1 7 0.157043478261 7.07195546782144 -5.838058773492193 -13.19973896596589 0 0 0
1282 1 7 0.157043478261 8.568901788485503 -6.32318159202975 -12.625565355393425 0 0 0
2618 138 2 0.527 1.724348609303606 -6.244327546151026 -9.229085877463586 0 0 0
1307 1 7 0.157043478261 6.785729420395335 -3.1608496748733756 -14.750995786385536 0 0 0
1142 1 4 -0.192556521739 3.9413619561050894 -2.8797446727544194 -16.8664299626845 0 0 0
2309 35 2 0.527 5.969897716690054 -0.7979313786908152 -12.199519306091654 0 0 0
2231 9 2 0.527 4.872098906530275 -1.1756427017158246 -15.157779614478994 0 0 0
2232 9 2 0.527 5.220294242038533 -0.22322506836225636 -14.041174672640205 0 0 0
2230 9 1 -1.054 5.141380239329341 -0.2819420680234012 -14.988864413734602 0 0 0
1262 1 7 0.157043478261 7.256334055036248 -6.672670344518225 -11.612283169459616 0 0 0
1226 1 6 0.158343478261 8.779265277936378 -6.778591296498106 -8.893696189264258 0 0 0
2617 138 1 -1.054 0.9866745263475359 -6.1394011762237435 -8.61947694008197 0 0 0
2308 35 1 -1.054 5.432975611933816 -0.021855753116347215 -12.308487646682359 0 0 0
2732 176 2 0.527 7.945719540435173 0.5819494076014715 -14.179513124277012 0 0 0
1230 1 6 0.158343478261 12.907389084565422 -7.574837774178785 -10.86964464487372 0 0 0
1168 1 4 -0.192556521739 -16.708403044250176 -2.2817323833331007 -11.696136789136036 1 0 0
1229 1 6 0.158343478261 16.25782558492572 -7.994247066163832 -16.136666434118986 0 0 0
1325 1 7 0.157043478261 -16.727530279604036 -5.589256384106493 -11.526010301603499 1 0 0
1290 1 7 0.157043478261 15.096580108940266 -2.925593215500768 -15.234916832057017 0 0 0
1289 1 7 0.157043478261 15.999682865314334 -6.86087251100483 -11.488535677727535 0 0 0
1326 1 7 0.157043478261 16.54449988839894 -1.986341040078111 -15.708570634100811 0 0 0
1181 1 4 -0.192556521739 16.60497209771593 -7.430271150642275 -15.322878003927679 0 0 0
1302 1 7 0.157043478261 16.729176225223366 -3.655971517292585 -15.341157643031055 0 0 0
1299 1 7 0.157043478261 15.520553242169397 -5.342412792849757 -12.16045488746073 0 0 0
1160 1 4 -0.192556521739 9.031855181442246 -2.7972748529336573 -11.530056518377313 0 0 0
1352 1 8 -0.300956521739 8.94684453844246 -3.9044518042677296 -12.307648485756832 0 0 0
1351 1 8 -0.300956521739 9.15077926835552 -5.080379263733955 -15.247889174392743 0 0 0
1159 1 4 -0.192556521739 9.357300932921866 -6.21732649566548 -16.017756104810523 0 0 0
1180 1 4 -0.192556521739 16.37399947817254 -1.3234276825356015 -11.833315392303023 0 0 0
1207 1 6 0.158343478261 10.247105250771325 -6.848712657967769 -16.037967907154542 0 0 0
1208 1 6 0.158343478261 9.587779829113362 -1.9188631604158208 -11.720531811457056 0 0 0
1114 1 9 0.736043478261 10.176896928569215 -4.344562104471497 -13.812463788056007 0 0 0
1131 1 3 0.433743478261 16.664652776895743 -6.433808366151083 -13.404561318349556 0 0 0
1132 1 3 0.433743478261 16.4513928012722 -2.3319939966860637 -13.675403212110611 0 0 0
1133 1 3 0.433743478261 12.144121479421774 -2.1340721882412677 -13.664307857063713 0 0 0
1134 1 3 0.433743478261 12.600902642807265 -6.319969964141092 -13.706789587915424 0 0 0
1169 1 4 -0.192556521739 11.396081946068021 -2.324592174043097 -15.710889762842726 0 0 0
1170 1 4 -0.192556521739 11.568557063472957 -6.187074279970992 -11.837673021871996 0 0 0